 Entering Gaussian System, Link 0=g16
 Input=LDP.com
 Output=LDP.log
 Initial command:
 /opt/gaussian16//g16/l1.exe "/home/user/software/tmp/g16scr/Gau-7442.inp" -scrdir="/home/user/software/tmp/g16scr/"
 Default is to use a total of   8 processors:
                                8 via shared-memory
                                1 via Linda
 Entering Link 1 = /opt/gaussian16//g16/l1.exe PID=      7444.
  
 Copyright (c) 1988-2019, Gaussian, Inc.  All Rights Reserved.
  
 This is part of the Gaussian(R) 16 program.  It is based on
 the Gaussian(R) 09 system (copyright 2009, Gaussian, Inc.),
 the Gaussian(R) 03 system (copyright 2003, Gaussian, Inc.),
 the Gaussian(R) 98 system (copyright 1998, Gaussian, Inc.),
 the Gaussian(R) 94 system (copyright 1995, Gaussian, Inc.),
 the Gaussian 92(TM) system (copyright 1992, Gaussian, Inc.),
 the Gaussian 90(TM) system (copyright 1990, Gaussian, Inc.),
 the Gaussian 88(TM) system (copyright 1988, Gaussian, Inc.),
 the Gaussian 86(TM) system (copyright 1986, Carnegie Mellon
 University), and the Gaussian 82(TM) system (copyright 1983,
 Carnegie Mellon University). Gaussian is a federally registered
 trademark of Gaussian, Inc.
  
 This software contains proprietary and confidential information,
 including trade secrets, belonging to Gaussian, Inc.
  
 This software is provided under written license and may be
 used, copied, transmitted, or stored only in accord with that
 written license.
  
 The following legend is applicable only to US Government
 contracts under FAR:
  
                    RESTRICTED RIGHTS LEGEND
  
 Use, reproduction and disclosure by the US Government is
 subject to restrictions as set forth in subparagraphs (a)
 and (c) of the Commercial Computer Software - Restricted
 Rights clause in FAR 52.227-19.
  
 Gaussian, Inc.
 340 Quinnipiac St., Bldg. 40, Wallingford CT 06492
  
  
 ---------------------------------------------------------------
 Warning -- This program may not be used in any manner that
 competes with the business of Gaussian, Inc. or will provide
 assistance to any competitor of Gaussian, Inc.  The licensee
 of this program is prohibited from giving any competitor of
 Gaussian, Inc. access to this program.  By using this program,
 the user acknowledges that Gaussian, Inc. is engaged in the
 business of creating and licensing software in the field of
 computational chemistry and represents and warrants to the
 licensee that it is not a competitor of Gaussian, Inc. and that
 it will not use this program in any manner prohibited above.
 ---------------------------------------------------------------
  

 Cite this work as:
 Gaussian 16, Revision C.01,
 M. J. Frisch, G. W. Trucks, H. B. Schlegel, G. E. Scuseria, 
 M. A. Robb, J. R. Cheeseman, G. Scalmani, V. Barone, 
 G. A. Petersson, H. Nakatsuji, X. Li, M. Caricato, A. V. Marenich, 
 J. Bloino, B. G. Janesko, R. Gomperts, B. Mennucci, H. P. Hratchian, 
 J. V. Ortiz, A. F. Izmaylov, J. L. Sonnenberg, D. Williams-Young, 
 F. Ding, F. Lipparini, F. Egidi, J. Goings, B. Peng, A. Petrone, 
 T. Henderson, D. Ranasinghe, V. G. Zakrzewski, J. Gao, N. Rega, 
 G. Zheng, W. Liang, M. Hada, M. Ehara, K. Toyota, R. Fukuda, 
 J. Hasegawa, M. Ishida, T. Nakajima, Y. Honda, O. Kitao, H. Nakai, 
 T. Vreven, K. Throssell, J. A. Montgomery, Jr., J. E. Peralta, 
 F. Ogliaro, M. J. Bearpark, J. J. Heyd, E. N. Brothers, K. N. Kudin, 
 V. N. Staroverov, T. A. Keith, R. Kobayashi, J. Normand, 
 K. Raghavachari, A. P. Rendell, J. C. Burant, S. S. Iyengar, 
 J. Tomasi, M. Cossi, J. M. Millam, M. Klene, C. Adamo, R. Cammi, 
 J. W. Ochterski, R. L. Martin, K. Morokuma, O. Farkas, 
 J. B. Foresman, and D. J. Fox, Gaussian, Inc., Wallingford CT, 2019.
 
 ******************************************
 Gaussian 16:  ES64L-G16RevC.01  3-Jul-2019
                13-Jun-2023 
 ******************************************
 %nprocs=16
 Will use up to   16 processors via shared memory.
 %mem=16GB
 %chk=LDP.chk
 ----------------------------------
 # opt HF/6-31g* Pop=MK iop(6/33=2)
 ----------------------------------
 1/18=20,19=15,38=1/1,3;
 2/9=110,12=2,17=6,18=5,40=1/2;
 3/5=1,6=6,7=1,11=9,25=1,30=1,71=1/1,2,3;
 4//1;
 5/5=2,38=5/2;
 6/7=2,8=2,9=2,10=2,15=8,20=1,28=1,33=2/1,2;
 7//1,2,3,16;
 1/18=20,19=15/3(2);
 2/9=110/2;
 99//99;
 2/9=110/2;
 3/5=1,6=6,7=1,11=9,25=1,30=1,71=1/1,2,3;
 4/5=5,16=3,69=1/1;
 5/5=2,38=5/2;
 7//1,2,3,16;
 1/18=20,19=15/3(-5);
 2/9=110/2;
 6/7=2,8=2,9=2,10=2,15=8,19=2,20=1,28=1,33=2/1,2;
 99/9=1/99;
 -----
 title
 -----
 Symbolic Z-matrix:
 Charge =  1 Multiplicity = 1
 C                     106.9     120.932   121.89 
 C                     107.4     122.17    122.256 
 C                     106.561   123.216   122.563 
 C                     105.185   123.034   122.499 
 C                     104.671   121.812   122.127 
 C                     105.533   120.767   121.827 
 C                     107.84    119.797   121.583 
 C                     109.05    119.803   122.49 
 N                     110.287   119.729   121.725 
 O                     107.062   124.434   122.934 
 O                     104.388   124.085   122.815 
 H                     108.4672   122.3285   122.3046 
 H                     103.6018   121.6706   122.0699 
 H                     105.1169   119.8124   121.5404 
 H                     108.1648   119.8659   120.5448 
 H                     107.3116   118.8496   121.6897 
 H                     108.9951   118.9559   123.1737 
 H                     109.0487   120.7126   123.0906 
 H                     111.075   119.7349   122.3568 
 H                     110.2974   118.8772   121.1824 
 H                     110.3477   120.5236   121.1045 
 H                     106.3373   125.0387   123.1093 
 H                     103.4675   123.826   122.7303 
 

 GradGradGradGradGradGradGradGradGradGradGradGradGradGradGradGradGradGrad
 Berny optimization.
 Initialization pass.
                           ----------------------------
                           !    Initial Parameters    !
                           ! (Angstroms and Degrees)  !
 --------------------------                            --------------------------
 ! Name  Definition              Value          Derivative Info.                !
 --------------------------------------------------------------------------------
 ! R1    R(1,2)                  1.3844         estimate D2E/DX2                !
 ! R2    R(1,6)                  1.3784         estimate D2E/DX2                !
 ! R3    R(1,7)                  1.5053         estimate D2E/DX2                !
 ! R4    R(2,3)                  1.3756         estimate D2E/DX2                !
 ! R5    R(2,12)                 1.08           estimate D2E/DX2                !
 ! R6    R(3,4)                  1.3895         estimate D2E/DX2                !
 ! R7    R(3,10)                 1.3683         estimate D2E/DX2                !
 ! R8    R(4,5)                  1.3769         estimate D2E/DX2                !
 ! R9    R(4,11)                 1.3563         estimate D2E/DX2                !
 ! R10   R(5,6)                  1.3875         estimate D2E/DX2                !
 ! R11   R(5,13)                 1.08           estimate D2E/DX2                !
 ! R12   R(6,14)                 1.0801         estimate D2E/DX2                !
 ! R13   R(7,8)                  1.5122         estimate D2E/DX2                !
 ! R14   R(7,15)                 1.09           estimate D2E/DX2                !
 ! R15   R(7,16)                 1.09           estimate D2E/DX2                !
 ! R16   R(8,9)                  1.4563         estimate D2E/DX2                !
 ! R17   R(8,17)                 1.09           estimate D2E/DX2                !
 ! R18   R(8,18)                 1.09           estimate D2E/DX2                !
 ! R19   R(9,19)                 1.01           estimate D2E/DX2                !
 ! R20   R(9,20)                 1.01           estimate D2E/DX2                !
 ! R21   R(9,21)                 1.01           estimate D2E/DX2                !
 ! R22   R(10,22)                0.96           estimate D2E/DX2                !
 ! R23   R(11,23)                0.96           estimate D2E/DX2                !
 ! A1    A(2,1,6)              118.5103         estimate D2E/DX2                !
 ! A2    A(2,1,7)              120.1741         estimate D2E/DX2                !
 ! A3    A(6,1,7)              121.3131         estimate D2E/DX2                !
 ! A4    A(1,2,3)              121.2449         estimate D2E/DX2                !
 ! A5    A(1,2,12)             120.0012         estimate D2E/DX2                !
 ! A6    A(3,2,12)             118.7539         estimate D2E/DX2                !
 ! A7    A(2,3,4)              119.6121         estimate D2E/DX2                !
 ! A8    A(2,3,10)             120.9355         estimate D2E/DX2                !
 ! A9    A(4,3,10)             119.4523         estimate D2E/DX2                !
 ! A10   A(3,4,5)              119.8929         estimate D2E/DX2                !
 ! A11   A(3,4,11)             118.0141         estimate D2E/DX2                !
 ! A12   A(5,4,11)             122.0928         estimate D2E/DX2                !
 ! A13   A(4,5,6)              119.6652         estimate D2E/DX2                !
 ! A14   A(4,5,13)             120.0026         estimate D2E/DX2                !
 ! A15   A(6,5,13)             120.3322         estimate D2E/DX2                !
 ! A16   A(1,6,5)              121.0718         estimate D2E/DX2                !
 ! A17   A(1,6,14)             120.0006         estimate D2E/DX2                !
 ! A18   A(5,6,14)             118.9277         estimate D2E/DX2                !
 ! A19   A(1,7,8)              111.9833         estimate D2E/DX2                !
 ! A20   A(1,7,15)             109.4303         estimate D2E/DX2                !
 ! A21   A(1,7,16)             109.4301         estimate D2E/DX2                !
 ! A22   A(8,7,15)             109.4266         estimate D2E/DX2                !
 ! A23   A(8,7,16)             109.4278         estimate D2E/DX2                !
 ! A24   A(15,7,16)            107.0152         estimate D2E/DX2                !
 ! A25   A(7,8,9)              111.3697         estimate D2E/DX2                !
 ! A26   A(7,8,17)             109.441          estimate D2E/DX2                !
 ! A27   A(7,8,18)             109.4415         estimate D2E/DX2                !
 ! A28   A(9,8,17)             109.4383         estimate D2E/DX2                !
 ! A29   A(9,8,18)             109.4425         estimate D2E/DX2                !
 ! A30   A(17,8,18)            107.6296         estimate D2E/DX2                !
 ! A31   A(8,9,19)             109.4996         estimate D2E/DX2                !
 ! A32   A(8,9,20)             109.5            estimate D2E/DX2                !
 ! A33   A(8,9,21)             109.4991         estimate D2E/DX2                !
 ! A34   A(19,9,20)            109.4477         estimate D2E/DX2                !
 ! A35   A(19,9,21)            109.4397         estimate D2E/DX2                !
 ! A36   A(20,9,21)            109.4412         estimate D2E/DX2                !
 ! A37   A(3,10,22)            109.501          estimate D2E/DX2                !
 ! A38   A(4,11,23)            109.5011         estimate D2E/DX2                !
 ! D1    D(6,1,2,3)              0.5405         estimate D2E/DX2                !
 ! D2    D(6,1,2,12)          -179.4572         estimate D2E/DX2                !
 ! D3    D(7,1,2,3)           -178.8991         estimate D2E/DX2                !
 ! D4    D(7,1,2,12)             1.1032         estimate D2E/DX2                !
 ! D5    D(2,1,6,5)             -0.236          estimate D2E/DX2                !
 ! D6    D(2,1,6,14)           179.7618         estimate D2E/DX2                !
 ! D7    D(7,1,6,5)            179.1969         estimate D2E/DX2                !
 ! D8    D(7,1,6,14)            -0.8052         estimate D2E/DX2                !
 ! D9    D(2,1,7,8)             37.1152         estimate D2E/DX2                !
 ! D10   D(2,1,7,15)           -84.401          estimate D2E/DX2                !
 ! D11   D(2,1,7,16)           158.6327         estimate D2E/DX2                !
 ! D12   D(6,1,7,8)           -142.3085         estimate D2E/DX2                !
 ! D13   D(6,1,7,15)            96.1754         estimate D2E/DX2                !
 ! D14   D(6,1,7,16)           -20.7909         estimate D2E/DX2                !
 ! D15   D(1,2,3,4)             -0.3587         estimate D2E/DX2                !
 ! D16   D(1,2,3,10)           179.4898         estimate D2E/DX2                !
 ! D17   D(12,2,3,4)           179.6391         estimate D2E/DX2                !
 ! D18   D(12,2,3,10)           -0.5125         estimate D2E/DX2                !
 ! D19   D(2,3,4,5)             -0.1359         estimate D2E/DX2                !
 ! D20   D(2,3,4,11)           179.6694         estimate D2E/DX2                !
 ! D21   D(10,3,4,5)          -179.9865         estimate D2E/DX2                !
 ! D22   D(10,3,4,11)           -0.1813         estimate D2E/DX2                !
 ! D23   D(2,3,10,22)         -179.9992         estimate D2E/DX2                !
 ! D24   D(4,3,10,22)           -0.1505         estimate D2E/DX2                !
 ! D25   D(3,4,5,6)              0.4326         estimate D2E/DX2                !
 ! D26   D(3,4,5,13)          -179.5674         estimate D2E/DX2                !
 ! D27   D(11,4,5,6)          -179.3644         estimate D2E/DX2                !
 ! D28   D(11,4,5,13)            0.6356         estimate D2E/DX2                !
 ! D29   D(3,4,11,23)         -179.9989         estimate D2E/DX2                !
 ! D30   D(5,4,11,23)           -0.1983         estimate D2E/DX2                !
 ! D31   D(4,5,6,1)             -0.2461         estimate D2E/DX2                !
 ! D32   D(4,5,6,14)           179.756          estimate D2E/DX2                !
 ! D33   D(13,5,6,1)           179.754          estimate D2E/DX2                !
 ! D34   D(13,5,6,14)           -0.244          estimate D2E/DX2                !
 ! D35   D(1,7,8,9)           -128.6589         estimate D2E/DX2                !
 ! D36   D(1,7,8,17)           110.2048         estimate D2E/DX2                !
 ! D37   D(1,7,8,18)            -7.517          estimate D2E/DX2                !
 ! D38   D(15,7,8,9)            -7.1406         estimate D2E/DX2                !
 ! D39   D(15,7,8,17)         -128.277          estimate D2E/DX2                !
 ! D40   D(15,7,8,18)          114.0012         estimate D2E/DX2                !
 ! D41   D(16,7,8,9)           109.8223         estimate D2E/DX2                !
 ! D42   D(16,7,8,17)          -11.3141         estimate D2E/DX2                !
 ! D43   D(16,7,8,18)         -129.0359         estimate D2E/DX2                !
 ! D44   D(7,8,9,19)           179.9973         estimate D2E/DX2                !
 ! D45   D(7,8,9,20)           -59.9965         estimate D2E/DX2                !
 ! D46   D(7,8,9,21)            60.0014         estimate D2E/DX2                !
 ! D47   D(17,8,9,19)          -58.8648         estimate D2E/DX2                !
 ! D48   D(17,8,9,20)           61.1415         estimate D2E/DX2                !
 ! D49   D(17,8,9,21)         -178.8606         estimate D2E/DX2                !
 ! D50   D(18,8,9,19)           58.856          estimate D2E/DX2                !
 ! D51   D(18,8,9,20)          178.8622         estimate D2E/DX2                !
 ! D52   D(18,8,9,21)          -61.1399         estimate D2E/DX2                !
 --------------------------------------------------------------------------------
 Trust Radius=3.00D-01 FncErr=1.00D-07 GrdErr=1.00D-07 EigMax=2.50D+02 EigMin=1.00D-04
 Number of steps in this run=    123 maximum allowed number of steps=    138.
 GradGradGradGradGradGradGradGradGradGradGradGradGradGradGradGradGradGrad

                          Input orientation:                          
 ---------------------------------------------------------------------
 Center     Atomic      Atomic             Coordinates (Angstroms)
 Number     Number       Type             X           Y           Z
 ---------------------------------------------------------------------
      1          6           0      106.900000  120.932000  121.890000
      2          6           0      107.400000  122.170000  122.256000
      3          6           0      106.561000  123.216000  122.563000
      4          6           0      105.185000  123.034000  122.499000
      5          6           0      104.671000  121.812000  122.127000
      6          6           0      105.533000  120.767000  121.827000
      7          6           0      107.840000  119.797000  121.583000
      8          6           0      109.050000  119.803000  122.490000
      9          7           0      110.287000  119.729000  121.725000
     10          8           0      107.062000  124.434000  122.934000
     11          8           0      104.388000  124.085000  122.815000
     12          1           0      108.467200  122.328500  122.304600
     13          1           0      103.601800  121.670600  122.069900
     14          1           0      105.116900  119.812400  121.540400
     15          1           0      108.164800  119.865900  120.544800
     16          1           0      107.311600  118.849600  121.689700
     17          1           0      108.995100  118.955900  123.173700
     18          1           0      109.048700  120.712600  123.090600
     19          1           0      111.075000  119.734900  122.356800
     20          1           0      110.297400  118.877200  121.182400
     21          1           0      110.347700  120.523600  121.104500
     22          1           0      106.337300  125.038700  123.109300
     23          1           0      103.467500  123.826000  122.730300
 ---------------------------------------------------------------------
                    Distance matrix (angstroms):
                    1          2          3          4          5
     1  C    0.000000
     2  C    1.384413   0.000000
     3  C    2.405100   1.375604   0.000000
     4  C    2.780379   2.389931   1.389459   0.000000
     5  C    2.408113   2.755403   2.394454   1.376904   0.000000
     6  C    1.378362   2.374477   2.756099   2.389974   1.387469
     7  C    1.505348   2.505525   3.779656   4.285586   3.794565
     8  C    2.501428   2.894813   4.224810   5.037625   4.831510
     9  N    3.598083   3.817749   5.171507   6.128010   6.003328
    10  O    3.657893   2.387389   1.368271   2.381670   3.639095
    11  O    4.136082   3.612734   2.353847   1.356343   2.391644
    12  H    2.139678   1.080000   2.118496   3.362790   3.835290
    13  H    3.384674   3.835408   3.374652   2.132958   1.080020
    14  H    2.134284   3.359004   3.836095   3.361883   2.131039
    15  H    2.132100   2.970185   4.227112   4.768119   4.300849
    16  H    2.132117   3.369505   4.515695   4.763045   3.992470
    17  H    3.153141   3.703641   4.944315   5.621653   5.286845
    18  H    2.471131   2.353462   3.568477   4.546105   4.615351
    19  H    4.368246   4.409705   5.704101   6.752509   6.736347
    20  H    4.033017   4.515537   5.889985   6.719305   6.415738
    21  H    3.559556   3.567285   4.869840   5.907640   5.910195
    22  H    4.320684   3.175987   1.915912   2.391461   3.762056
    23  H    4.567647   4.293233   3.157504   1.905405   2.422515
                    6          7          8          9         10
     6  C    0.000000
     7  C    2.514495   0.000000
     8  C    3.706502   1.512212   0.000000
     9  N    4.867069   2.452060   1.456321   0.000000
    10  O    4.124340   4.892060   5.059194   5.830895   0.000000
    11  O    3.646408   5.641017   6.338406   7.413571   2.699303
    12  H    3.357963   2.706026   2.598496   3.225680   2.608421
    13  H    2.145933   4.659376   5.774712   6.969983   4.511766
    14  H    1.080065   2.723477   4.046122   5.174067   5.204298
    15  H    3.063069   1.090001   2.138069   2.432149   5.271810
    16  H    2.618910   1.090027   2.138103   3.102837   5.726788
    17  H    4.132774   2.138231   1.089972   2.089359   5.814113
    18  H    3.736280   2.138256   1.089997   2.089430   4.221412
    19  H    5.662127   3.326838   2.030518   1.010025   6.206357
    20  H    5.165884   2.654304   2.030500   1.009993   6.664379
    21  H    4.874688   2.654330   2.030493   1.009997   5.425322
    22  H    4.531955   5.662430   5.929151   6.760868   0.959991
    23  H    3.799963   6.055402   6.885244   8.018829   3.651245
                   11         12         13         14         15
    11  O    0.000000
    12  H    4.470534   0.000000
    13  H    2.646245   4.915286   0.000000
    14  H    4.517855   4.259022   2.455363   0.000000
    15  H    6.100724   3.041832   5.138467   3.206833   0.000000
    16  H    6.101078   3.717023   4.676025   2.401246   1.752601
    17  H    6.903746   3.522562   6.138050   4.294380   2.903207
    18  H    5.759441   1.888669   5.623905   4.321172   2.824762
    19  H    7.990575   3.678329   7.725151   6.014272   3.430710
    20  H    8.044102   4.064534   7.309022   5.276395   2.435579
    21  H    7.150343   2.869527   6.910483   5.296894   2.347528
    22  H    2.189960   3.539661   4.461772   5.591515   6.055929
    23  H    0.959987   5.236480   2.258299   4.499485   6.520999
                   16         17         18         19         20
    16  H    0.000000
    17  H    2.246715   0.000000
    18  H    2.907027   1.759481   0.000000
    19  H    3.923259   2.366464   2.366485   0.000000
    20  H    3.028715   2.380642   2.927315   1.649099   0.000000
    21  H    3.516054   2.927251   2.380696   1.649020   1.649009
    22  H    6.424133   6.638411   5.105603   7.151388   7.573600
    23  H    6.373736   7.380301   6.401005   8.645846   8.575206
                   21         22         23
    21  H    0.000000
    22  H    6.363070   0.000000
    23  H    7.802962   3.138476   0.000000
 Stoichiometry    C8H12NO2(1+)
 Framework group  C1[X(C8H12NO2)]
 Deg. of freedom    63
 Full point group                 C1      NOp   1
 Largest Abelian subgroup         C1      NOp   1
 Largest concise Abelian subgroup C1      NOp   1
                         Standard orientation:                         
 ---------------------------------------------------------------------
 Center     Atomic      Atomic             Coordinates (Angstroms)
 Number     Number       Type             X           Y           Z
 ---------------------------------------------------------------------
      1          6           0        0.575725   -0.675589   -0.125779
      2          6           0        0.073086    0.614351   -0.128692
      3          6           0       -1.279508    0.853249   -0.053163
      4          6           0       -2.162671   -0.216909    0.020200
      5          6           0       -1.680170   -1.506490    0.014042
      6          6           0       -0.312239   -1.727538   -0.056468
      7          6           0        2.061753   -0.908721   -0.184457
      8          6           0        2.828602    0.124005    0.610656
      9          7           0        3.888760    0.726712   -0.185384
     10          8           0       -1.768785    2.131029   -0.046096
     11          8           0       -3.488867    0.055917    0.100422
     12          1           0        0.746667    1.456249   -0.191124
     13          1           0       -2.365461   -2.339754    0.063944
     14          1           0        0.053429   -2.743819   -0.056502
     15          1           0        2.391775   -0.885020   -1.223026
     16          1           0        2.288185   -1.903416    0.199560
     17          1           0        3.260796   -0.345873    1.494093
     18          1           0        2.144321    0.901019    0.951396
     19          1           0        4.381420    1.410307    0.371514
     20          1           0        4.533702    0.009917   -0.485951
     21          1           0        3.487380    1.178559   -0.994595
     22          1           0       -2.726795    2.107044    0.010697
     23          1           0       -3.982991   -0.765926    0.145039
 ---------------------------------------------------------------------
 Rotational constants (GHZ):           2.3652589           0.6032404           0.4920498
 Standard basis: 6-31G(d) (6D, 7F)
 There are   189 symmetry adapted cartesian basis functions of A   symmetry.
 There are   189 symmetry adapted basis functions of A   symmetry.
   189 basis functions,   356 primitive gaussians,   189 cartesian basis functions
    41 alpha electrons       41 beta electrons
       nuclear repulsion energy       614.5893027654 Hartrees.
 NAtoms=   23 NActive=   23 NUniq=   23 SFac= 1.00D+00 NAtFMM=   60 NAOKFM=F Big=F
 Integral buffers will be    131072 words long.
 Raffenetti 1 integral format.
 Two-electron integral symmetry is turned on.
 One-electron integrals computed using PRISM.
 NBasis=   189 RedAO= T EigKep=  3.46D-04  NBF=   189
 NBsUse=   189 1.00D-06 EigRej= -1.00D+00 NBFU=   189
 ExpMin= 1.61D-01 ExpMax= 5.48D+03 ExpMxC= 8.25D+02 IAcc=3 IRadAn=         5 AccDes= 0.00D+00
 Harris functional with IExCor=  205 and IRadAn=       5 diagonalized for initial guess.
 HarFok:  IExCor=  205 AccDes= 0.00D+00 IRadAn=         5 IDoV= 1 UseB2=F ITyADJ=14
 ICtDFT=  3500011 ScaDFX=  1.000000  1.000000  1.000000  1.000000
 FoFCou: FMM=F IPFlag=           0 FMFlag=      100000 FMFlg1=           0
         NFxFlg=           0 DoJE=T BraDBF=F KetDBF=T FulRan=T
         wScrn=  0.000000 ICntrl=       500 IOpCl=  0 I1Cent=   200000004 NGrid=           0
         NMat0=    1 NMatS0=      1 NMatT0=    0 NMatD0=    1 NMtDS0=    0 NMtDT0=    0
 Petite list used in FoFCou.
 Requested convergence on RMS density matrix=1.00D-08 within 128 cycles.
 Requested convergence on MAX density matrix=1.00D-06.
 Requested convergence on             energy=1.00D-06.
 No special actions if energy rises.
 Integral accuracy reduced to 1.0D-05 until final iterations.
 Initial convergence to 1.0D-05 achieved.  Increase integral accuracy.
 SCF Done:  E(RHF) =  -513.859516478     A.U. after   15 cycles
            NFock= 15  Conv=0.43D-08     -V/T= 2.0012
 SCF density gives NOpUse=  1 NOpAll=  1.

 **********************************************************************

            Population analysis using the SCF Density.

 **********************************************************************

 Orbital symmetries:
 BldTbl:  Degeneracy threshold= 1.00D-02
       Occupied  (A) (A) (A) (A) (A) (A) (A) (A) (A) (A) (A) (A)
                 (A) (A) (A) (A) (A) (A) (A) (A) (A) (A) (A) (A)
                 (A) (A) (A) (A) (A) (A) (A) (A) (A) (A) (A) (A)
                 (A) (A) (A) (A) (A)
       Virtual   (A) (A) (A) (A) (A) (A) (A) (A) (A) (A) (A) (A)
                 (A) (A) (A) (A) (A) (A) (A) (A) (A) (A) (A) (A)
                 (A) (A) (A) (A) (A) (A) (A) (A) (A) (A) (A) (A)
                 (A) (A) (A) (A) (A) (A) (A) (A) (A) (A) (A) (A)
                 (A) (A) (A) (A) (A) (A) (A) (A) (A) (A) (A) (A)
                 (A) (A) (A) (A) (A) (A) (A) (A) (A) (A) (A) (A)
                 (A) (A) (A) (A) (A) (A) (A) (A) (A) (A) (A) (A)
                 (A) (A) (A) (A) (A) (A) (A) (A) (A) (A) (A) (A)
                 (A) (A) (A) (A) (A) (A) (A) (A) (A) (A) (A) (A)
                 (A) (A) (A) (A) (A) (A) (A) (A) (A) (A) (A) (A)
                 (A) (A) (A) (A) (A) (A) (A) (A) (A) (A) (A) (A)
                 (A) (A) (A) (A) (A) (A) (A) (A) (A) (A) (A) (A)
                 (A) (A) (A) (A)
 The electronic state is 1-A.
 Alpha  occ. eigenvalues --  -20.70166 -20.68539 -15.89999 -11.46369 -11.40818
 Alpha  occ. eigenvalues --  -11.40539 -11.39681 -11.36309 -11.35064 -11.34622
 Alpha  occ. eigenvalues --  -11.34477  -1.53436  -1.52418  -1.48655  -1.28506
 Alpha  occ. eigenvalues --   -1.22257  -1.13249  -1.12614  -1.05109  -0.99304
 Alpha  occ. eigenvalues --   -0.98523  -0.96043  -0.93571  -0.86658  -0.85032
 Alpha  occ. eigenvalues --   -0.83134  -0.80195  -0.76602  -0.74925  -0.72239
 Alpha  occ. eigenvalues --   -0.71422  -0.71188  -0.70782  -0.67675  -0.66398
 Alpha  occ. eigenvalues --   -0.65360  -0.63050  -0.61155  -0.58041  -0.44685
 Alpha  occ. eigenvalues --   -0.41122
 Alpha virt. eigenvalues --   -0.02061   0.02371   0.04190   0.05309   0.05818
 Alpha virt. eigenvalues --    0.08866   0.11346   0.11908   0.13167   0.14773
 Alpha virt. eigenvalues --    0.17357   0.18963   0.20450   0.23017   0.23117
 Alpha virt. eigenvalues --    0.25644   0.28909   0.31002   0.34044   0.36579
 Alpha virt. eigenvalues --    0.38705   0.41718   0.45418   0.47018   0.54077
 Alpha virt. eigenvalues --    0.54909   0.58748   0.60473   0.61943   0.62456
 Alpha virt. eigenvalues --    0.63727   0.64532   0.66134   0.70665   0.71003
 Alpha virt. eigenvalues --    0.72021   0.72749   0.74034   0.76161   0.76880
 Alpha virt. eigenvalues --    0.78680   0.80176   0.83106   0.84822   0.86720
 Alpha virt. eigenvalues --    0.88829   0.89641   0.91124   0.91517   0.94217
 Alpha virt. eigenvalues --    0.94906   0.96005   0.97101   0.99374   1.00448
 Alpha virt. eigenvalues --    1.00733   1.03675   1.04796   1.06069   1.06744
 Alpha virt. eigenvalues --    1.09953   1.10909   1.11595   1.13590   1.15442
 Alpha virt. eigenvalues --    1.17380   1.19837   1.21638   1.22786   1.28258
 Alpha virt. eigenvalues --    1.31747   1.32829   1.38011   1.39425   1.40770
 Alpha virt. eigenvalues --    1.42715   1.49222   1.49295   1.54988   1.56356
 Alpha virt. eigenvalues --    1.57564   1.61557   1.61722   1.65716   1.66289
 Alpha virt. eigenvalues --    1.78458   1.81387   1.85996   1.89718   1.91595
 Alpha virt. eigenvalues --    1.94089   1.96597   1.96819   1.98778   2.01129
 Alpha virt. eigenvalues --    2.03799   2.06097   2.08225   2.09897   2.10967
 Alpha virt. eigenvalues --    2.14697   2.15894   2.17526   2.22347   2.24445
 Alpha virt. eigenvalues --    2.25899   2.28590   2.32831   2.36664   2.41844
 Alpha virt. eigenvalues --    2.46533   2.49341   2.50182   2.50770   2.53738
 Alpha virt. eigenvalues --    2.54053   2.56315   2.59066   2.62101   2.63041
 Alpha virt. eigenvalues --    2.68780   2.70271   2.75839   2.80519   2.82947
 Alpha virt. eigenvalues --    2.85051   2.85839   2.92278   2.92420   3.03121
 Alpha virt. eigenvalues --    3.07631   3.11278   3.17520   3.19235   3.28428
 Alpha virt. eigenvalues --    3.49099   3.74604   3.97845   4.18578   4.39718
 Alpha virt. eigenvalues --    4.42369   4.48398   4.50612   4.56318   4.67868
 Alpha virt. eigenvalues --    4.72051   4.86408   5.25642
          Condensed to atoms (all electrons):
               1          2          3          4          5          6
     1  C    4.838702   0.520917  -0.039478  -0.027070  -0.044964   0.588141
     2  C    0.520917   5.040270   0.599159  -0.062948  -0.041228  -0.041315
     3  C   -0.039478   0.599159   4.366695   0.528792  -0.034610  -0.030286
     4  C   -0.027070  -0.062948   0.528792   4.582727   0.524659  -0.035944
     5  C   -0.044964  -0.041228  -0.034610   0.524659   5.043386   0.504867
     6  C    0.588141  -0.041315  -0.030286  -0.035944   0.504867   4.916276
     7  C    0.318854  -0.056336   0.002285   0.000352   0.003779  -0.034607
     8  C   -0.041825  -0.020490  -0.000412  -0.000007  -0.000097   0.002458
     9  N    0.003876  -0.000172   0.000012  -0.000000   0.000000   0.000013
    10  O    0.002061  -0.046142   0.288043  -0.065779   0.004586  -0.000030
    11  O    0.000048   0.002955  -0.050928   0.258061  -0.062598   0.004044
    12  H   -0.054012   0.365912  -0.004999   0.004615  -0.000020   0.002294
    13  H    0.001753   0.000502   0.001161  -0.031295   0.373319  -0.016239
    14  H   -0.034523   0.002471   0.000403   0.001244  -0.020311   0.379195
    15  H   -0.038190   0.002077  -0.000065   0.000026   0.000008  -0.005141
    16  H   -0.036636   0.001980   0.000009   0.000001   0.000119   0.000206
    17  H    0.001043   0.000929   0.000018  -0.000001   0.000002  -0.000087
    18  H    0.001762   0.001178  -0.000365  -0.000006  -0.000078   0.000575
    19  H   -0.000227   0.000052  -0.000000  -0.000000  -0.000000  -0.000001
    20  H    0.000188  -0.000054  -0.000001   0.000000  -0.000000   0.000005
    21  H   -0.000405   0.000817   0.000019   0.000000   0.000000  -0.000013
    22  H   -0.000060   0.003529  -0.024968  -0.006497   0.000746  -0.000069
    23  H   -0.000008  -0.000145   0.004294  -0.026557   0.000148   0.000485
               7          8          9         10         11         12
     1  C    0.318854  -0.041825   0.003876   0.002061   0.000048  -0.054012
     2  C   -0.056336  -0.020490  -0.000172  -0.046142   0.002955   0.365912
     3  C    0.002285  -0.000412   0.000012   0.288043  -0.050928  -0.004999
     4  C    0.000352  -0.000007  -0.000000  -0.065779   0.258061   0.004615
     5  C    0.003779  -0.000097   0.000000   0.004586  -0.062598  -0.000020
     6  C   -0.034607   0.002458   0.000013  -0.000030   0.004044   0.002294
     7  C    5.233406   0.249260  -0.051538  -0.000050  -0.000000  -0.003193
     8  C    0.249260   5.315195   0.118131   0.000005   0.000000  -0.004321
     9  N   -0.051538   0.118131   6.904980   0.000000   0.000000  -0.000368
    10  O   -0.000050   0.000005   0.000000   8.329901  -0.005999   0.000173
    11  O   -0.000000   0.000000   0.000000  -0.005999   8.355502  -0.000045
    12  H   -0.003193  -0.004321  -0.000368   0.000173  -0.000045   0.509070
    13  H   -0.000132   0.000001  -0.000000  -0.000030  -0.002220   0.000011
    14  H   -0.002603   0.000047  -0.000001   0.000001  -0.000041  -0.000127
    15  H    0.403933  -0.070725  -0.002353  -0.000000  -0.000000   0.000329
    16  H    0.404286  -0.034167   0.000926   0.000000  -0.000000   0.000018
    17  H   -0.030534   0.402170  -0.034756  -0.000000  -0.000000   0.000236
    18  H   -0.042835   0.403233  -0.036926  -0.000011   0.000000   0.000112
    19  H    0.004619  -0.023989   0.311846   0.000000  -0.000000   0.000036
    20  H   -0.002340  -0.017800   0.305833   0.000000   0.000000  -0.000015
    21  H   -0.000859  -0.021400   0.306624  -0.000000  -0.000000   0.000766
    22  H    0.000003   0.000000  -0.000000   0.265093   0.010161  -0.000141
    23  H   -0.000000  -0.000000  -0.000000   0.000018   0.267457   0.000003
              13         14         15         16         17         18
     1  C    0.001753  -0.034523  -0.038190  -0.036636   0.001043   0.001762
     2  C    0.000502   0.002471   0.002077   0.001980   0.000929   0.001178
     3  C    0.001161   0.000403  -0.000065   0.000009   0.000018  -0.000365
     4  C   -0.031295   0.001244   0.000026   0.000001  -0.000001  -0.000006
     5  C    0.373319  -0.020311   0.000008   0.000119   0.000002  -0.000078
     6  C   -0.016239   0.379195  -0.005141   0.000206  -0.000087   0.000575
     7  C   -0.000132  -0.002603   0.403933   0.404286  -0.030534  -0.042835
     8  C    0.000001   0.000047  -0.070725  -0.034167   0.402170   0.403233
     9  N   -0.000000  -0.000001  -0.002353   0.000926  -0.034756  -0.036926
    10  O   -0.000030   0.000001  -0.000000   0.000000  -0.000000  -0.000011
    11  O   -0.002220  -0.000041  -0.000000  -0.000000  -0.000000   0.000000
    12  H    0.000011  -0.000127   0.000329   0.000018   0.000236   0.000112
    13  H    0.438043  -0.001359   0.000003  -0.000006  -0.000000   0.000000
    14  H   -0.001359   0.452921   0.000106   0.002764  -0.000018   0.000016
    15  H    0.000003   0.000106   0.523137  -0.019808   0.002828   0.002552
    16  H   -0.000006   0.002764  -0.019808   0.447989  -0.005191   0.002012
    17  H   -0.000000  -0.000018   0.002828  -0.005191   0.416413  -0.016548
    18  H    0.000000   0.000016   0.002552   0.002012  -0.016548   0.413584
    19  H    0.000000   0.000000   0.000262  -0.000120  -0.001840  -0.002123
    20  H   -0.000000   0.000001   0.001566   0.000496  -0.001764   0.002749
    21  H   -0.000000  -0.000001   0.002783  -0.000071   0.002771  -0.002369
    22  H   -0.000004   0.000000  -0.000000  -0.000000   0.000000  -0.000000
    23  H    0.004048  -0.000008   0.000000   0.000000   0.000000   0.000000
              19         20         21         22         23
     1  C   -0.000227   0.000188  -0.000405  -0.000060  -0.000008
     2  C    0.000052  -0.000054   0.000817   0.003529  -0.000145
     3  C   -0.000000  -0.000001   0.000019  -0.024968   0.004294
     4  C   -0.000000   0.000000   0.000000  -0.006497  -0.026557
     5  C   -0.000000  -0.000000   0.000000   0.000746   0.000148
     6  C   -0.000001   0.000005  -0.000013  -0.000069   0.000485
     7  C    0.004619  -0.002340  -0.000859   0.000003  -0.000000
     8  C   -0.023989  -0.017800  -0.021400   0.000000  -0.000000
     9  N    0.311846   0.305833   0.306624  -0.000000  -0.000000
    10  O    0.000000   0.000000  -0.000000   0.265093   0.000018
    11  O   -0.000000   0.000000  -0.000000   0.010161   0.267457
    12  H    0.000036  -0.000015   0.000766  -0.000141   0.000003
    13  H    0.000000  -0.000000  -0.000000  -0.000004   0.004048
    14  H    0.000000   0.000001  -0.000001   0.000000  -0.000008
    15  H    0.000262   0.001566   0.002783  -0.000000   0.000000
    16  H   -0.000120   0.000496  -0.000071  -0.000000   0.000000
    17  H   -0.001840  -0.001764   0.002771   0.000000   0.000000
    18  H   -0.002123   0.002749  -0.002369  -0.000000   0.000000
    19  H    0.256731  -0.009392  -0.008689  -0.000000   0.000000
    20  H   -0.009392   0.260474  -0.009118  -0.000000  -0.000000
    21  H   -0.008689  -0.009118   0.258552  -0.000000   0.000000
    22  H   -0.000000  -0.000000  -0.000000   0.256413  -0.000238
    23  H    0.000000  -0.000000   0.000000  -0.000238   0.269801
 Mulliken charges:
               1
     1  C    0.040052
     2  C   -0.273922
     3  C    0.395223
     4  C    0.355627
     5  C   -0.251715
     6  C   -0.234824
     7  C   -0.395749
     8  C   -0.255267
     9  N   -0.826127
    10  O   -0.771840
    11  O   -0.776397
    12  H    0.183666
    13  H    0.232444
    14  H    0.219819
    15  H    0.196672
    16  H    0.235192
    17  H    0.264329
    18  H    0.273489
    19  H    0.472834
    20  H    0.469171
    21  H    0.470591
    22  H    0.496031
    23  H    0.480701
 Sum of Mulliken charges =   1.00000
 Mulliken charges with hydrogens summed into heavy atoms:
               1
     1  C    0.040052
     2  C   -0.090256
     3  C    0.395223
     4  C    0.355627
     5  C   -0.019271
     6  C   -0.015005
     7  C    0.036115
     8  C    0.282551
     9  N    0.586470
    10  O   -0.275809
    11  O   -0.295696
 DipInt: DoE/N= T F RetVal/Mat= T F Init=T NMatP=  1 IDeriv=0 Min/MaxMlt=  0  4
 Entering OneElI...
 OneElI was handed  2147389387 working-precision words.
 Multipole integrals L=0 to 4 MinM= 0 MaxM= 0.
 Requested accuracy = 0.1000D-12
 ShPair: Thresh= 1.00D-13 NBox=     0 BxSize= 0.00D+00 RnKept= 1.63D+01
         NSMCal=                 2346 NSMKep=                2098
 PrmmSu-InSpLW:  IPartL=    0 NPrtUS=    1 NPrtUL=    1 DoSpLW=F IThBeg=    0 IThEnd=    0 NThAct=    1.
 PrSmSu:  IncTry=   512 NBBP=           2098 NTPThr=   100 NPartT=    1 Incr=          20 LDynOK=F GPUOK=F.
 PrsmSu:  NPrtUS=   1 ThrOK=F IAlg=2 LenDen=           0 ISkipM=0 DoSpLW=F IThBeg=    0 IThEnd=    0.
 Prism:   IPart=     0 DynPar=F LinDyn=F Incr=          20.
 PRISM was handed  2147204961 working-precision words and  2098 shell-pairs
 IPart=  0 NShTot=        2098 NBatch=          43 AvBLen=        48.8
 PrsmSu-ThDecC:  IPartSL=    0    0 NPrtUSL=    1    1 IThBeg=    0 IThEnd=    0 CPU=   -1 GPU=   -1 NThAct=    1.
 PrSmSu:  NxtVal=             21.
 Electronic moments (au):
        -82.00000000          5.44101780         -0.06433471         -0.08097354
      -1653.53614059       -452.51389972        -80.27871130         12.27081383
         -1.98139403         -0.64085856      -1779.58337539        -25.66669757
        -17.57405618        497.46340508       -706.61351165       -112.97438089
       -149.58612541          8.82784207         36.43184418        -16.34359490
     -65693.33882969      -6438.64286892       -385.86634857      -4034.43931945
        588.81157499       1206.60384360         28.03418151       -121.62772611
        -14.24468451      -5840.96940500      -1867.93012908       -365.51381633
        153.12153548         30.13843031        -11.79901070
 Electronic spatial extent (au):  <R**2>=           2186.3288
 DipInt: DoE/N= F T RetVal/Mat= T F Init=T NMatP=  1 IDeriv=0 Min/MaxMlt=  0  4
 Nuclear    moments (au):
         83.00000000          0.00000000          0.00000000          0.00000000
       1666.82871899        411.17838452         32.55112314         -0.00000000
          0.00000000         -0.00000000       2084.49319374         23.26515548
         17.46807996       -485.72101618        750.44630050        105.23995892
        171.05791503          2.08674869        -34.90166622         14.93585907
      64076.66052562       5001.17015505        126.89171016       4699.09635995
       -713.48709829      -1115.14747688        -33.20376358        104.57695960
          3.78187227       5087.39901761       1021.39816672         59.47275165
       -168.32330437        -37.96406129         24.38244659
 Total      moments (au):
          1.00000000          5.44101780         -0.06433471         -0.08097354
         13.29257840        -41.33551521        -47.72758816         12.27081383
         -1.98139403         -0.64085856        304.90981835         -2.40154209
         -0.10597622         11.74238890         43.83278884         -7.73442197
         21.47178962         10.91459075          1.53017796         -1.40773583
      -1616.67830406      -1437.47271386       -258.97463841        664.65704050
       -124.67552330         91.45636672         -5.16958207        -17.05076651
        -10.46281224       -753.57038738       -846.53196236       -306.04106468
        -15.20176888         -7.82563098         12.58343589
 Traceless Quadrup. (au):
         38.54942006        -16.07867355        -22.47074651         12.27081383
         -1.98139403         -0.64085856
 Charge=              1.0000 electrons
 Dipole moment (field-independent basis, Debye):
    X=             13.8297    Y=             -0.1635    Z=             -0.2058  Tot=             13.8322
 Quadrupole moment (field-independent basis, Debye-Ang):
   XX=             17.8790   YY=            -55.5977   ZZ=            -64.1952
   XY=             16.5047   XZ=             -2.6650   YZ=             -0.8620
 Traceless Quadrupole moment (field-independent basis, Debye-Ang):
   XX=             51.8503   YY=            -21.6264   ZZ=            -30.2239
   XY=             16.5047   XZ=             -2.6650   YZ=             -0.8620
 Octapole moment (field-independent basis, Debye-Ang**2):
  XXX=            217.0231  YYY=             -1.7093  ZZZ=             -0.0754  XYY=              8.3578
  XXY=             31.1985  XXZ=             -5.5051  XZZ=             15.2828  YZZ=              7.7686
  YYZ=              1.0891  XYZ=             -1.0020
 Hexadecapole moment (field-independent basis, Debye-Ang**3):
 XXXX=           -608.9186 YYYY=           -541.4212 ZZZZ=            -97.5423 XXXY=            250.3417
 XXXZ=            -46.9588 YYYX=             34.4469 YYYZ=             -1.9471 ZZZX=             -6.4221
 ZZZY=             -3.9408 XXYY=           -283.8307 XXZZ=           -318.8445 YYZZ=           -115.2697
 XXYZ=             -5.7257 YYXZ=             -2.9475 ZZXY=              4.7395
 N-N= 6.145893027654D+02 E-N=-2.420162354956D+03  KE= 5.132632861781D+02
 Entering OneElI...
 OneElI was handed  2147406555 working-precision words.
 Calculate electrostatic properties
    NBasis =   189  MinDer = 0  MaxDer = 0
    NGrid  =    23  NMatD  =   1
 Requested accuracy = 0.1000D-12
 PrtBox:  NBox=     1 Levels=  1 BoxLen=   29.89 SMaxX=       16.09
          Shift=            7.526762            5.185067            2.311184
 Box      1 Number                   0 centers from      1 to     68:
 ShPair: Thresh= 1.00D-13 NBox=     1 BxSize= 2.99D+01 RnKept= 1.63D+01
         NSMCal=                 2346 NSMKep=                1957
 PrmmSu-InSpLW:  IPartL=    0 NPrtUS=   16 NPrtUL=    1 DoSpLW=F IThBeg=    0 IThEnd=   15 NThAct=   16.
 PrSmSu:  IncTry=   512 NBBP=          45011 NTPThr=   100 NPartT=   16 Incr=          28 LDynOK=F GPUOK=F.
 PrsmSu:  NPrtUS=  16 ThrOK=T IAlg=2 LenDen=           0 ISkipM=0 DoSpLW=F IThBeg=    0 IThEnd=   15.
 Prism:   IPart=     0 DynPar=F LinDyn=F Incr=          28.
 PRISM was handed   134143329 working-precision words and  1957 shell-pairs
 PRISM was handed   134143329 working-precision words and  1957 shell-pairs
 PRISM was handed   134143329 working-precision words and  1957 shell-pairs
 PRISM was handed   134143329 working-precision words and  1957 shell-pairs
 PRISM was handed   134143329 working-precision words and  1957 shell-pairs
 PRISM was handed   134143329 working-precision words and  1957 shell-pairs
 PRISM was handed   134143329 working-precision words and  1957 shell-pairs
 PRISM was handed   134143329 working-precision words and  1957 shell-pairs
 PRISM was handed   134143329 working-precision words and  1957 shell-pairs
 PRISM was handed   134143329 working-precision words and  1957 shell-pairs
 PRISM was handed   134143329 working-precision words and  1957 shell-pairs
 PRISM was handed   134143329 working-precision words and  1957 shell-pairs
 PRISM was handed   134143329 working-precision words and  1957 shell-pairs
 PRISM was handed   134143329 working-precision words and  1957 shell-pairs
 PRISM was handed   134143329 working-precision words and  1957 shell-pairs
 PRISM was handed   134143329 working-precision words and  1957 shell-pairs
 IPart=  0 NShTot=        3266 NBatch=         142 AvBLen=        23.0
 PrsmSu-ThDecC:  IPartSL=    0    0 NPrtUSL=   16    1 IThBeg=    0 IThEnd=   15 CPU=   -1 GPU=   -1 NThAct=   16.
 IPart= 15 NShTot=        2392 NBatch=         104 AvBLen=        23.0
 PrsmSu-ThDecC:  IPartSL=   15    0 NPrtUSL=   16    1 IThBeg=    0 IThEnd=   15 CPU=   -1 GPU=   -1 NThAct=   15.
 IPart= 14 NShTot=        2392 NBatch=         104 AvBLen=        23.0
 PrsmSu-ThDecC:  IPartSL=   14    0 NPrtUSL=   16    1 IThBeg=    0 IThEnd=   15 CPU=   -1 GPU=   -1 NThAct=   14.
 IPart= 13 NShTot=        2461 NBatch=         107 AvBLen=        23.0
 PrsmSu-ThDecC:  IPartSL=   13    0 NPrtUSL=   16    1 IThBeg=    0 IThEnd=   15 CPU=   -1 GPU=   -1 NThAct=   13.
 IPart= 11 NShTot=        2576 NBatch=         112 AvBLen=        23.0
 PrsmSu-ThDecC:  IPartSL=   11    0 NPrtUSL=   16    1 IThBeg=    0 IThEnd=   15 CPU=   -1 GPU=   -1 NThAct=   12.
 IPart=  6 NShTot=        2967 NBatch=         129 AvBLen=        23.0
 PrsmSu-ThDecC:  IPartSL=    6    0 NPrtUSL=   16    1 IThBeg=    0 IThEnd=   15 CPU=   -1 GPU=   -1 NThAct=   11.
 IPart=  1 NShTot=        3174 NBatch=         138 AvBLen=        23.0
 PrsmSu-ThDecC:  IPartSL=    1    0 NPrtUSL=   16    1 IThBeg=    0 IThEnd=   15 CPU=   -1 GPU=   -1 NThAct=   10.
 IPart=  8 NShTot=        2829 NBatch=         123 AvBLen=        23.0
 PrsmSu-ThDecC:  IPartSL=    8    0 NPrtUSL=   16    1 IThBeg=    0 IThEnd=   15 CPU=   -1 GPU=   -1 NThAct=    9.
 IPart=  5 NShTot=        3013 NBatch=         131 AvBLen=        23.0
 PrsmSu-ThDecC:  IPartSL=    5    0 NPrtUSL=   16    1 IThBeg=    0 IThEnd=   15 CPU=   -1 GPU=   -1 NThAct=    8.
 IPart=  9 NShTot=        2691 NBatch=         117 AvBLen=        23.0
 PrsmSu-ThDecC:  IPartSL=    9    0 NPrtUSL=   16    1 IThBeg=    0 IThEnd=   15 CPU=   -1 GPU=   -1 NThAct=    7.
 IPart= 10 NShTot=        2645 NBatch=         115 AvBLen=        23.0
 PrsmSu-ThDecC:  IPartSL=   10    0 NPrtUSL=   16    1 IThBeg=    0 IThEnd=   15 CPU=   -1 GPU=   -1 NThAct=    6.
 IPart=  7 NShTot=        2875 NBatch=         125 AvBLen=        23.0
 PrsmSu-ThDecC:  IPartSL=    7    0 NPrtUSL=   16    1 IThBeg=    0 IThEnd=   15 CPU=   -1 GPU=   -1 NThAct=    5.
 IPart=  2 NShTot=        3105 NBatch=         135 AvBLen=        23.0
 PrsmSu-ThDecC:  IPartSL=    2    0 NPrtUSL=   16    1 IThBeg=    0 IThEnd=   15 CPU=   -1 GPU=   -1 NThAct=    4.
 IPart=  4 NShTot=        3059 NBatch=         133 AvBLen=        23.0
 PrsmSu-ThDecC:  IPartSL=    4    0 NPrtUSL=   16    1 IThBeg=    0 IThEnd=   15 CPU=   -1 GPU=   -1 NThAct=    3.
 IPart=  3 NShTot=        3082 NBatch=         134 AvBLen=        23.0
 PrsmSu-ThDecC:  IPartSL=    3    0 NPrtUSL=   16    1 IThBeg=    0 IThEnd=   15 CPU=   -1 GPU=   -1 NThAct=    2.
 IPart= 12 NShTot=        2484 NBatch=         108 AvBLen=        23.0
 PrsmSu-ThDecC:  IPartSL=   12    0 NPrtUSL=   16    1 IThBeg=    0 IThEnd=   15 CPU=   -1 GPU=   -1 NThAct=    1.
 PrSmSu:  NxtVal=            449.
 --------------------------------------------------------
       Center         ----      EFG at Nuclei      ----
                      3XX-RR        3YY-RR        3ZZ-RR
 --------------------------------------------------------
     1   Atom        0.022970      0.197879     -0.220849
     2   Atom        0.083621      0.111596     -0.195217
     3   Atom        0.294978     -0.094209     -0.200769
     4   Atom       -0.162596      0.346080     -0.183484
     5   Atom        0.155982      0.105237     -0.261219
     6   Atom        0.159935      0.120603     -0.280537
     7   Atom        0.023262      0.000153     -0.023415
     8   Atom       -0.126079      0.120396      0.005683
     9   Atom        0.030450     -0.015411     -0.015039
    10   Atom       -0.951578     -0.699126      1.650705
    11   Atom       -1.518057     -0.165215      1.683272
    12   Atom       -0.049120     -0.128183      0.177303
    13   Atom       -0.046946     -0.128164      0.175110
    14   Atom        0.088468     -0.262619      0.174151
    15   Atom        0.102993      0.149833     -0.252826
    16   Atom        0.122735     -0.218864      0.096129
    17   Atom        0.058991      0.072856     -0.131847
    18   Atom       -0.020980     -0.086260      0.107240
    19   Atom        0.050745     -0.070671      0.019926
    20   Atom       -0.043692     -0.092412      0.136104
    21   Atom        0.098690      0.073932     -0.172623
    22   Atom       -0.457153      0.197560      0.259593
    23   Atom        0.023342     -0.289362      0.266020
 --------------------------------------------------------
                        XY            XZ            YZ
 --------------------------------------------------------
     1   Atom        0.047338     -0.000616     -0.012233
     2   Atom       -0.056189     -0.008272      0.006059
     3   Atom        0.139080     -0.035495     -0.010430
     4   Atom        0.065840     -0.004014     -0.013163
     5   Atom       -0.024717     -0.025532     -0.004473
     6   Atom        0.011608     -0.017542     -0.009758
     7   Atom       -0.059924     -0.040669     -0.077479
     8   Atom       -0.218374      0.286993      0.168680
     9   Atom        0.042813     -0.037585     -0.021031
    10   Atom        0.917727      0.137887     -0.017668
    11   Atom       -0.593038      0.215203      0.066587
    12   Atom       -0.229787      0.013251      0.022641
    13   Atom       -0.224301      0.015792      0.017169
    14   Atom        0.149110      0.000732      0.001337
    15   Atom       -0.018378      0.133839      0.011106
    16   Atom        0.081567     -0.040503      0.140177
    17   Atom        0.066715     -0.138246      0.155490
    18   Atom        0.180188      0.084215     -0.086548
    19   Atom       -0.187058     -0.150432     -0.206935
    20   Atom        0.252591      0.107783     -0.117833
    21   Atom        0.098061     -0.175582      0.201020
    22   Atom       -0.007798      0.042451      0.001489
    23   Atom       -0.297270      0.020353      0.027879
 --------------------------------------------------------


 ---------------------------------------------------------------------------------
              Nuclear Quadrupole Coupling Constant in Principal Axis System
 ---------------------------------------------------------------------------------

       Atom             a.u.   MegaHertz   Gauss  10(-4) cm-1        Axes

              Baa    -0.0413     0.198     0.071     0.066 -0.5700  0.8033 -0.1727
     9 N(14)  Bbb    -0.0351     0.169     0.060     0.056  0.2627  0.3774  0.8880
              Bcc     0.0764    -0.367    -0.131    -0.122  0.7785  0.4608 -0.4261
 

 ---------------------------------------------------------------------------------

 No NMR shielding tensors so no spin-rotation constants.
 Leave Link  601 at Tue Jun 13 10:46:36 2023, MaxMem=  2147483648 cpu:               2.8 elap:               0.2
 FitSet:  NAtFit=    23 NAtPot=    23 NAtFrz=     0 MDM=    27 TotChg=   1.00000
 Merz-Kollman atomic radii used.
 Atom Element Radius
    1     6    1.50
    2     6    1.50
    3     6    1.50
    4     6    1.50
    5     6    1.50
    6     6    1.50
    7     6    1.50
    8     6    1.50
    9     7    1.50
   10     8    1.40
   11     8    1.40
   12     1    1.20
   13     1    1.20
   14     1    1.20
   15     1    1.20
   16     1    1.20
   17     1    1.20
   18     1    1.20
   19     1    1.20
   20     1    1.20
   21     1    1.20
   22     1    1.20
   23     1    1.20
 Generate VDW surfaces: Layer= 4 Dens= 1 Start= 1.400 Inc= 0.200

 **********************************************************************

            Electrostatic Properties Using The SCF Density.

 **********************************************************************

       Atomic Center    1 is at   0.575725 -0.675589 -0.125779
       Atomic Center    2 is at   0.073086  0.614351 -0.128692
       Atomic Center    3 is at  -1.279508  0.853249 -0.053163
       Atomic Center    4 is at  -2.162671 -0.216909  0.020200
       Atomic Center    5 is at  -1.680170 -1.506490  0.014042
       Atomic Center    6 is at  -0.312239 -1.727538 -0.056468
       Atomic Center    7 is at   2.061753 -0.908721 -0.184457
       Atomic Center    8 is at   2.828602  0.124005  0.610656
       Atomic Center    9 is at   3.888760  0.726712 -0.185384
       Atomic Center   10 is at  -1.768785  2.131029 -0.046096
       Atomic Center   11 is at  -3.488867  0.055917  0.100422
       Atomic Center   12 is at   0.746667  1.456249 -0.191124
       Atomic Center   13 is at  -2.365461 -2.339754  0.063944
       Atomic Center   14 is at   0.053429 -2.743819 -0.056502
       Atomic Center   15 is at   2.391775 -0.885020 -1.223026
       Atomic Center   16 is at   2.288185 -1.903416  0.199560
       Atomic Center   17 is at   3.260796 -0.345873  1.494093
       Atomic Center   18 is at   2.144321  0.901019  0.951396
       Atomic Center   19 is at   4.381420  1.410307  0.371514
       Atomic Center   20 is at   4.533702  0.009917 -0.485951
       Atomic Center   21 is at   3.487380  1.178559 -0.994595
       Atomic Center   22 is at  -2.726795  2.107044  0.010697
       Atomic Center   23 is at  -3.982991 -0.765926  0.145039
      ESP Fit Center   24 is at   0.575725 -0.675589  1.974221
      ESP Fit Center   25 is at   1.100725 -1.584915  1.692875
      ESP Fit Center   26 is at   1.100725  0.233738 -1.944432
      ESP Fit Center   27 is at  -0.474275 -0.675589 -1.944432
      ESP Fit Center   28 is at   0.575725 -0.675589 -2.225779
      ESP Fit Center   29 is at   0.073086  0.614351  1.971308
      ESP Fit Center   30 is at   0.598086  1.523678  1.689961
      ESP Fit Center   31 is at  -0.451914 -0.294975  1.689961
      ESP Fit Center   32 is at   1.123086  0.614351 -1.947345
      ESP Fit Center   33 is at   0.598086  1.523678 -1.947345
      ESP Fit Center   34 is at  -0.451914  1.523678 -1.947345
      ESP Fit Center   35 is at  -0.451914 -0.294975 -1.947345
      ESP Fit Center   36 is at   0.073086  0.614351 -2.228692
      ESP Fit Center   37 is at  -1.279508  0.853249  2.046837
      ESP Fit Center   38 is at  -0.754508  1.762575  1.765490
      ESP Fit Center   39 is at  -0.754508 -0.056078  1.765490
      ESP Fit Center   40 is at  -0.754508  1.762575 -1.871816
      ESP Fit Center   41 is at  -2.329508  0.853249 -1.871816
      ESP Fit Center   42 is at  -1.279508  0.853249 -2.153163
      ESP Fit Center   43 is at  -2.162671 -0.216909  2.120200
      ESP Fit Center   44 is at  -1.112671 -0.216909  1.838854
      ESP Fit Center   45 is at  -2.687671  0.692418  1.838854
      ESP Fit Center   46 is at  -2.687671 -1.126235  1.838854
      ESP Fit Center   47 is at  -2.687671  0.692418 -1.798453
      ESP Fit Center   48 is at  -2.687671 -1.126235 -1.798453
      ESP Fit Center   49 is at  -2.162671 -0.216909 -2.079800
      ESP Fit Center   50 is at  -1.680170 -1.506490  2.114042
      ESP Fit Center   51 is at  -1.155170 -0.597163  1.832695
      ESP Fit Center   52 is at  -2.730170 -1.506490  1.832695
      ESP Fit Center   53 is at  -2.205170 -2.415816  1.832695
      ESP Fit Center   54 is at  -1.155170 -2.415816  1.832695
      ESP Fit Center   55 is at  -1.155170 -0.597163 -1.804612
      ESP Fit Center   56 is at  -2.730170 -1.506490 -1.804612
      ESP Fit Center   57 is at  -2.205170 -2.415816 -1.804612
      ESP Fit Center   58 is at  -1.680170 -1.506490 -2.085958
      ESP Fit Center   59 is at  -0.312239 -1.727538  2.043532
      ESP Fit Center   60 is at   0.737761 -1.727538  1.762185
      ESP Fit Center   61 is at  -0.837239 -2.636865  1.762185
      ESP Fit Center   62 is at   0.212761 -2.636865  1.762185
      ESP Fit Center   63 is at  -0.837239 -0.818212 -1.875122
      ESP Fit Center   64 is at  -0.837239 -2.636865 -1.875122
      ESP Fit Center   65 is at   0.212761 -2.636865 -1.875122
      ESP Fit Center   66 is at  -0.312239 -1.727538 -2.156468
      ESP Fit Center   67 is at   1.802932 -2.708863 -1.234457
      ESP Fit Center   68 is at   1.778602  0.124005  2.429309
      ESP Fit Center   69 is at   4.021538 -1.604261  0.610656
      ESP Fit Center   70 is at   3.144090  2.690246 -0.185384
      ESP Fit Center   71 is at   5.418709  1.709951 -1.235384
      ESP Fit Center   72 is at   4.644256  2.381018 -1.235384
      ESP Fit Center   73 is at   4.938760  0.726712 -2.004037
      ESP Fit Center   74 is at  -1.768785  2.131029  1.913904
      ESP Fit Center   75 is at  -0.788785  2.131029  1.651314
      ESP Fit Center   76 is at  -1.278785  2.979734  1.651314
      ESP Fit Center   77 is at  -2.258785  2.979734  1.651314
      ESP Fit Center   78 is at  -0.395552  3.128742  0.933904
      ESP Fit Center   79 is at  -1.244257  3.745362  0.933904
      ESP Fit Center   80 is at  -2.293314  3.745362  0.933904
      ESP Fit Center   81 is at  -0.071376  3.111029 -0.046096
      ESP Fit Center   82 is at  -0.788785  3.828439 -0.046096
      ESP Fit Center   83 is at  -1.768785  4.091029 -0.046096
      ESP Fit Center   84 is at  -2.748785  3.828439 -0.046096
      ESP Fit Center   85 is at  -0.395552  3.128742 -1.026096
      ESP Fit Center   86 is at  -1.244257  3.745362 -1.026096
      ESP Fit Center   87 is at  -2.293314  3.745362 -1.026096
      ESP Fit Center   88 is at  -0.788785  2.131029 -1.743505
      ESP Fit Center   89 is at  -1.278785  2.979734 -1.743505
      ESP Fit Center   90 is at  -2.258785  2.979734 -1.743505
      ESP Fit Center   91 is at  -2.748785  2.131029 -1.743505
      ESP Fit Center   92 is at  -1.768785  2.131029 -2.006096
      ESP Fit Center   93 is at  -3.488867  0.055917  2.060422
      ESP Fit Center   94 is at  -2.998867  0.904622  1.797832
      ESP Fit Center   95 is at  -3.978867  0.904622  1.797832
      ESP Fit Center   96 is at  -4.468867  0.055917  1.797832
      ESP Fit Center   97 is at  -4.013396  1.670250  1.080422
      ESP Fit Center   98 is at  -4.862100  1.053630  1.080422
      ESP Fit Center   99 is at  -5.186277  0.055917  1.080422
      ESP Fit Center  100 is at  -4.468867  1.753327  0.100422
      ESP Fit Center  101 is at  -5.186277  1.035917  0.100422
      ESP Fit Center  102 is at  -5.448867  0.055917  0.100422
      ESP Fit Center  103 is at  -4.862100  1.053630 -0.879578
      ESP Fit Center  104 is at  -5.186277  0.055917 -0.879578
      ESP Fit Center  105 is at  -2.998867  0.904622 -1.596988
      ESP Fit Center  106 is at  -3.978867  0.904622 -1.596988
      ESP Fit Center  107 is at  -4.468867  0.055917 -1.596988
      ESP Fit Center  108 is at  -3.978867 -0.792787 -1.596988
      ESP Fit Center  109 is at  -3.488867  0.055917 -1.859578
      ESP Fit Center  110 is at   1.051815  2.395397  1.168024
      ESP Fit Center  111 is at   1.970633  2.483279  0.328024
      ESP Fit Center  112 is at   1.024117  3.029750  0.328024
      ESP Fit Center  113 is at   1.970633  2.483279 -0.710273
      ESP Fit Center  114 is at   1.024117  3.029750 -0.710273
      ESP Fit Center  115 is at  -0.052221  2.839962 -0.710273
      ESP Fit Center  116 is at   1.734146  1.456249 -1.550273
      ESP Fit Center  117 is at   1.051815  2.395397 -1.550273
      ESP Fit Center  118 is at  -3.164349 -2.920179  1.423093
      ESP Fit Center  119 is at  -2.060313 -3.278902  1.423093
      ESP Fit Center  120 is at  -3.866879 -2.886225  0.583093
      ESP Fit Center  121 is at  -3.164349 -3.723467  0.583093
      ESP Fit Center  122 is at  -2.088011 -3.913255  0.583093
      ESP Fit Center  123 is at  -3.866879 -2.886225 -0.455204
      ESP Fit Center  124 is at  -3.164349 -3.723467 -0.455204
      ESP Fit Center  125 is at  -2.088011 -3.913255 -0.455204
      ESP Fit Center  126 is at  -3.164349 -2.920179 -1.295204
      ESP Fit Center  127 is at  -2.060313 -3.278902 -1.295204
      ESP Fit Center  128 is at   1.040908 -2.743819  1.302646
      ESP Fit Center  129 is at  -0.745459 -3.324245  1.302646
      ESP Fit Center  130 is at   0.358577 -3.682968  1.302646
      ESP Fit Center  131 is at  -0.745459 -4.127533  0.462646
      ESP Fit Center  132 is at   0.330880 -4.317320  0.462646
      ESP Fit Center  133 is at   1.277395 -3.770849  0.462646
      ESP Fit Center  134 is at  -0.745459 -4.127533 -0.575651
      ESP Fit Center  135 is at   0.330880 -4.317320 -0.575651
      ESP Fit Center  136 is at   1.277395 -3.770849 -0.575651
      ESP Fit Center  137 is at   1.040908 -2.743819 -1.415651
      ESP Fit Center  138 is at  -0.745459 -3.324245 -1.415651
      ESP Fit Center  139 is at   0.358577 -3.682968 -1.415651
      ESP Fit Center  140 is at   1.592888  0.498694 -1.742175
      ESP Fit Center  141 is at   1.592888 -2.268733 -1.742175
      ESP Fit Center  142 is at   2.669226 -2.458521 -1.742175
      ESP Fit Center  143 is at   3.615742 -1.912050 -1.742175
      ESP Fit Center  144 is at   3.379254 -0.885020 -2.582175
      ESP Fit Center  145 is at   2.696923  0.054129 -2.582175
      ESP Fit Center  146 is at   1.592888 -0.304594 -2.582175
      ESP Fit Center  147 is at   1.592888 -1.465446 -2.582175
      ESP Fit Center  148 is at   2.696923 -1.824168 -2.582175
      ESP Fit Center  149 is at   2.391775 -0.885020 -2.903026
      ESP Fit Center  150 is at   2.288185 -1.903416  1.879560
      ESP Fit Center  151 is at   1.489298 -2.483841  1.558708
      ESP Fit Center  152 is at   2.593333 -2.842564  1.558708
      ESP Fit Center  153 is at   3.885960 -1.903416  0.718708
      ESP Fit Center  154 is at   1.489298 -3.287129  0.718708
      ESP Fit Center  155 is at   2.565636 -3.476917  0.718708
      ESP Fit Center  156 is at   3.512152 -2.930446  0.718708
      ESP Fit Center  157 is at   2.565636 -3.476917 -0.319589
      ESP Fit Center  158 is at   3.512152 -2.930446 -0.319589
      ESP Fit Center  159 is at   2.593333 -2.842564 -1.159589
      ESP Fit Center  160 is at   3.260796 -0.345873  3.174093
      ESP Fit Center  161 is at   4.248275 -0.345873  2.853242
      ESP Fit Center  162 is at   3.565944  0.593276  2.853242
      ESP Fit Center  163 is at   2.461908  0.234553  2.853242
      ESP Fit Center  164 is at   2.461908 -0.926298  2.853242
      ESP Fit Center  165 is at   3.565944 -1.285021  2.853242
      ESP Fit Center  166 is at   4.858571 -0.345873  2.013242
      ESP Fit Center  167 is at   4.484762  0.681157  2.013242
      ESP Fit Center  168 is at   2.461908 -1.729586  2.013242
      ESP Fit Center  169 is at   3.538246 -1.919374  2.013242
      ESP Fit Center  170 is at   4.484762 -1.372903  2.013242
      ESP Fit Center  171 is at   4.484762 -1.372903  0.974945
      ESP Fit Center  172 is at   2.144321  0.901019  2.631396
      ESP Fit Center  173 is at   2.449469  1.840167  2.310544
      ESP Fit Center  174 is at   1.345434  1.481444  2.310544
      ESP Fit Center  175 is at   1.345434  0.320593  2.310544
      ESP Fit Center  176 is at   2.421772  2.474520  1.470544
      ESP Fit Center  177 is at   1.345434  2.284732  1.470544
      ESP Fit Center  178 is at   2.421772  2.474520  0.432247
      ESP Fit Center  179 is at   4.381420  1.410307  2.051514
      ESP Fit Center  180 is at   5.368900  1.410307  1.730662
      ESP Fit Center  181 is at   4.686568  2.349455  1.730662
      ESP Fit Center  182 is at   3.582533  1.990733  1.730662
      ESP Fit Center  183 is at   5.979195  1.410307  0.890662
      ESP Fit Center  184 is at   5.605387  2.437337  0.890662
      ESP Fit Center  185 is at   4.658871  2.983808  0.890662
      ESP Fit Center  186 is at   3.582533  2.794020  0.890662
      ESP Fit Center  187 is at   5.979195  1.410307 -0.147635
      ESP Fit Center  188 is at   5.605387  2.437337 -0.147635
      ESP Fit Center  189 is at   4.658871  2.983808 -0.147635
      ESP Fit Center  190 is at   4.838850 -0.929231  0.873197
      ESP Fit Center  191 is at   6.131477  0.009917  0.033197
      ESP Fit Center  192 is at   4.811153 -1.563584  0.033197
      ESP Fit Center  193 is at   5.757669 -1.017112  0.033197
      ESP Fit Center  194 is at   6.131477  0.009917 -1.005100
      ESP Fit Center  195 is at   4.811153 -1.563584 -1.005100
      ESP Fit Center  196 is at   5.757669 -1.017112 -1.005100
      ESP Fit Center  197 is at   5.521182  0.009917 -1.845100
      ESP Fit Center  198 is at   4.838850 -0.929231 -1.845100
      ESP Fit Center  199 is at   4.533702  0.009917 -2.165951
      ESP Fit Center  200 is at   2.688492  2.562272 -0.475446
      ESP Fit Center  201 is at   4.711346  2.205589 -1.513743
      ESP Fit Center  202 is at   3.764830  2.752060 -1.513743
      ESP Fit Center  203 is at   2.688492  2.562272 -1.513743
      ESP Fit Center  204 is at   1.985962  1.725030 -1.513743
      ESP Fit Center  205 is at   4.474859  1.178559 -2.353743
      ESP Fit Center  206 is at   3.792528  2.117707 -2.353743
      ESP Fit Center  207 is at   2.688492  1.758984 -2.353743
      ESP Fit Center  208 is at   2.688492  0.598133 -2.353743
      ESP Fit Center  209 is at   3.792528  0.239410 -2.353743
      ESP Fit Center  210 is at   3.487380  1.178559 -2.674595
      ESP Fit Center  211 is at  -2.726795  2.107044  1.690697
      ESP Fit Center  212 is at  -3.525682  2.687470  1.369845
      ESP Fit Center  213 is at  -3.525682  3.490758  0.529845
      ESP Fit Center  214 is at  -4.228212  2.653516  0.529845
      ESP Fit Center  215 is at  -3.525682  3.490758 -0.508452
      ESP Fit Center  216 is at  -4.228212  2.653516 -0.508452
      ESP Fit Center  217 is at  -3.525682  2.687470 -1.348452
      ESP Fit Center  218 is at  -3.525682  1.526619 -1.348452
      ESP Fit Center  219 is at  -3.982991 -0.765926  1.825039
      ESP Fit Center  220 is at  -4.781879 -1.346351  1.504187
      ESP Fit Center  221 is at  -3.677843 -1.705074  1.504187
      ESP Fit Center  222 is at  -5.484408 -0.219455  0.664187
      ESP Fit Center  223 is at  -5.484408 -1.312397  0.664187
      ESP Fit Center  224 is at  -4.781879 -2.149639  0.664187
      ESP Fit Center  225 is at  -5.484408 -0.219455 -0.374110
      ESP Fit Center  226 is at  -5.484408 -1.312397 -0.374110
      ESP Fit Center  227 is at  -4.781879 -2.149639 -0.374110
      ESP Fit Center  228 is at  -4.781879 -1.346351 -1.214110
      ESP Fit Center  229 is at  -3.677843 -1.705074 -1.214110
      ESP Fit Center  230 is at   0.575725 -0.675589  2.274221
      ESP Fit Center  231 is at   1.096386 -1.577399  2.036547
      ESP Fit Center  232 is at   1.096386  0.226222 -2.288104
      ESP Fit Center  233 is at  -0.465596 -0.675589 -2.288104
      ESP Fit Center  234 is at   0.575725 -0.675589 -2.525779
      ESP Fit Center  235 is at   0.073086  0.614351  2.271308
      ESP Fit Center  236 is at   0.593746  1.516162  2.033633
      ESP Fit Center  237 is at  -0.447575 -0.287459  2.033633
      ESP Fit Center  238 is at  -0.193953  2.471648 -1.625067
      ESP Fit Center  239 is at   1.114407  0.614351 -2.291017
      ESP Fit Center  240 is at   0.593746  1.516162 -2.291017
      ESP Fit Center  241 is at  -0.447575  1.516162 -2.291017
      ESP Fit Center  242 is at  -0.447575 -0.287459 -2.291017
      ESP Fit Center  243 is at   0.073086  0.614351 -2.528692
      ESP Fit Center  244 is at  -1.279508  0.853249  2.346837
      ESP Fit Center  245 is at  -0.758847  1.755059  2.109162
      ESP Fit Center  246 is at  -0.758847 -0.048562  2.109162
      ESP Fit Center  247 is at  -0.758847  1.755059 -2.215488
      ESP Fit Center  248 is at  -2.320829  0.853249 -2.215488
      ESP Fit Center  249 is at  -1.279508  0.853249 -2.453163
      ESP Fit Center  250 is at  -2.162671 -0.216909  2.420200
      ESP Fit Center  251 is at  -1.121350 -0.216909  2.182526
      ESP Fit Center  252 is at  -2.683331  0.684902  2.182526
      ESP Fit Center  253 is at  -2.683331 -1.118719  2.182526
      ESP Fit Center  254 is at  -2.683331  0.684902 -2.142125
      ESP Fit Center  255 is at  -3.203992 -0.216909 -2.142125
      ESP Fit Center  256 is at  -2.683331 -1.118719 -2.142125
      ESP Fit Center  257 is at  -2.162671 -0.216909 -2.379800
      ESP Fit Center  258 is at  -1.680170 -1.506490  2.414042
      ESP Fit Center  259 is at  -1.159510 -0.604679  2.176367
      ESP Fit Center  260 is at  -2.721491 -1.506490  2.176367
      ESP Fit Center  261 is at  -2.200831 -2.408300  2.176367
      ESP Fit Center  262 is at  -1.159510 -2.408300  2.176367
      ESP Fit Center  263 is at  -3.480559 -2.035131 -1.482334
      ESP Fit Center  264 is at  -1.159510 -0.604679 -2.148284
      ESP Fit Center  265 is at  -2.721491 -1.506490 -2.148284
      ESP Fit Center  266 is at  -2.200831 -2.408300 -2.148284
      ESP Fit Center  267 is at  -1.680170 -1.506490 -2.385958
      ESP Fit Center  268 is at  -0.312239 -1.727538  2.343532
      ESP Fit Center  269 is at   0.729082 -1.727538  2.105857
      ESP Fit Center  270 is at  -0.832900 -2.629349  2.105857
      ESP Fit Center  271 is at   0.208421 -2.629349  2.105857
      ESP Fit Center  272 is at   1.266285 -2.741994 -1.552844
      ESP Fit Center  273 is at  -0.832900 -0.825728 -2.218794
      ESP Fit Center  274 is at  -0.832900 -2.629349 -2.218794
      ESP Fit Center  275 is at   0.208421 -2.629349 -2.218794
      ESP Fit Center  276 is at  -0.312239 -1.727538 -2.456468
      ESP Fit Center  277 is at   1.541093 -1.810531  1.977868
      ESP Fit Center  278 is at   4.169865 -1.923934 -0.718507
      ESP Fit Center  279 is at   1.794715 -2.766018 -1.680833
      ESP Fit Center  280 is at   1.787281  0.124005  2.772981
      ESP Fit Center  281 is at   3.608085  1.830835  2.107031
      ESP Fit Center  282 is at   5.467285 -0.287744  1.310992
      ESP Fit Center  283 is at   6.228587  0.726712  0.348666
      ESP Fit Center  284 is at   5.996872  1.741925 -0.719434
      ESP Fit Center  285 is at   4.409421  3.007875 -0.719434
      ESP Fit Center  286 is at   5.467285  1.741168 -1.681759
      ESP Fit Center  287 is at   4.930081  0.726712 -2.347709
      ESP Fit Center  288 is at  -1.768785  2.131029  2.193904
      ESP Fit Center  289 is at  -0.796886  2.131029  1.972075
      ESP Fit Center  290 is at  -1.282836  2.972719  1.972075
      ESP Fit Center  291 is at  -2.254735  2.972719  1.972075
      ESP Fit Center  292 is at  -2.740685  2.131029  1.972075
      ESP Fit Center  293 is at  -0.351952  3.160419  1.350522
      ESP Fit Center  294 is at  -1.227603  3.796617  1.350522
      ESP Fit Center  295 is at  -2.309968  3.796617  1.350522
      ESP Fit Center  296 is at  -0.528224  3.928293  0.452351
      ESP Fit Center  297 is at  -1.505553  4.298945  0.452351
      ESP Fit Center  298 is at  -2.543185  4.172954  0.452351
      ESP Fit Center  299 is at  -0.528224  3.928293 -0.544543
      ESP Fit Center  300 is at  -1.505553  4.298945 -0.544543
      ESP Fit Center  301 is at  -2.543185  4.172954 -0.544543
      ESP Fit Center  302 is at  -0.351952  3.160419 -1.442713
      ESP Fit Center  303 is at  -1.227603  3.796617 -1.442713
      ESP Fit Center  304 is at  -2.309968  3.796617 -1.442713
      ESP Fit Center  305 is at  -0.796886  2.131029 -2.064266
      ESP Fit Center  306 is at  -1.282836  2.972719 -2.064266
      ESP Fit Center  307 is at  -2.254735  2.972719 -2.064266
      ESP Fit Center  308 is at  -2.740685  2.131029 -2.064266
      ESP Fit Center  309 is at  -1.768785  2.131029 -2.286096
      ESP Fit Center  310 is at  -3.488867  0.055917  2.340422
      ESP Fit Center  311 is at  -3.002917  0.897607  2.118592
      ESP Fit Center  312 is at  -3.974817  0.897607  2.118592
      ESP Fit Center  313 is at  -4.460767  0.055917  2.118592
      ESP Fit Center  314 is at  -3.974817 -0.785772  2.118592
      ESP Fit Center  315 is at  -4.030049  1.721505  1.497039
      ESP Fit Center  316 is at  -4.905701  1.085307  1.497039
      ESP Fit Center  317 is at  -5.240170  0.055917  1.497039
      ESP Fit Center  318 is at  -5.123494  1.504070  0.598869
      ESP Fit Center  319 is at  -5.609247  0.578544  0.598869
      ESP Fit Center  320 is at  -5.123494  1.504070 -0.398025
      ESP Fit Center  321 is at  -5.609247  0.578544 -0.398025
      ESP Fit Center  322 is at  -4.905701  1.085307 -1.296195
      ESP Fit Center  323 is at  -5.240170  0.055917 -1.296195
      ESP Fit Center  324 is at  -3.974817  0.897607 -1.917748
      ESP Fit Center  325 is at  -4.460767  0.055917 -1.917748
      ESP Fit Center  326 is at  -3.974817 -0.785772 -1.917748
      ESP Fit Center  327 is at  -3.488867  0.055917 -2.139578
      ESP Fit Center  328 is at   1.260490  3.037636  0.768876
      ESP Fit Center  329 is at   0.232843  3.037636  0.768876
      ESP Fit Center  330 is at   1.706667  3.119017 -0.191124
      ESP Fit Center  331 is at   0.746667  3.376249 -0.191124
      ESP Fit Center  332 is at   1.260490  3.037636 -1.151124
      ESP Fit Center  333 is at   0.232843  3.037636 -1.151124
      ESP Fit Center  334 is at   1.706667  1.456249 -1.853893
      ESP Fit Center  335 is at   1.226667  2.287633 -1.853893
      ESP Fit Center  336 is at   0.266667  2.287633 -1.853893
      ESP Fit Center  337 is at  -3.325461 -2.339754  1.726713
      ESP Fit Center  338 is at  -2.845461 -3.171138  1.726713
      ESP Fit Center  339 is at  -3.710669 -3.317105  1.023944
      ESP Fit Center  340 is at  -2.879285 -3.921141  1.023944
      ESP Fit Center  341 is at  -1.851637 -3.921141  1.023944
      ESP Fit Center  342 is at  -4.028230 -3.299754  0.063944
      ESP Fit Center  343 is at  -3.325461 -4.002523  0.063944
      ESP Fit Center  344 is at  -2.365461 -4.259754  0.063944
      ESP Fit Center  345 is at  -1.405461 -4.002523  0.063944
      ESP Fit Center  346 is at  -3.710669 -3.317105 -0.896056
      ESP Fit Center  347 is at  -2.879285 -3.921141 -0.896056
      ESP Fit Center  348 is at  -1.851637 -3.921141 -0.896056
      ESP Fit Center  349 is at  -3.325461 -2.339754 -1.598825
      ESP Fit Center  350 is at  -2.845461 -3.171138 -1.598825
      ESP Fit Center  351 is at  -0.426571 -3.575204  1.606266
      ESP Fit Center  352 is at   0.533429 -3.575204  1.606266
      ESP Fit Center  353 is at  -1.291779 -3.721170  0.903498
      ESP Fit Center  354 is at  -0.460395 -4.325206  0.903498
      ESP Fit Center  355 is at   0.567253 -4.325206  0.903498
      ESP Fit Center  356 is at   1.398637 -3.721170  0.903498
      ESP Fit Center  357 is at  -0.906571 -4.406588 -0.056502
      ESP Fit Center  358 is at   0.053429 -4.663819 -0.056502
      ESP Fit Center  359 is at   1.013429 -4.406588 -0.056502
      ESP Fit Center  360 is at  -1.291779 -3.721170 -1.016502
      ESP Fit Center  361 is at  -0.460395 -4.325206 -1.016502
      ESP Fit Center  362 is at   0.567253 -4.325206 -1.016502
      ESP Fit Center  363 is at   1.398637 -3.721170 -1.016502
      ESP Fit Center  364 is at  -0.426571 -3.575204 -1.719271
      ESP Fit Center  365 is at   0.533429 -3.575204 -1.719271
      ESP Fit Center  366 is at   4.054544 -1.845020 -1.223026
      ESP Fit Center  367 is at   4.054544 -0.885020 -2.183026
      ESP Fit Center  368 is at   1.877951  0.696367 -2.183026
      ESP Fit Center  369 is at   1.046567 -1.862371 -2.183026
      ESP Fit Center  370 is at   1.877951 -2.466407 -2.183026
      ESP Fit Center  371 is at   2.905599 -2.466407 -2.183026
      ESP Fit Center  372 is at   3.736983 -1.862371 -2.183026
      ESP Fit Center  373 is at   3.351775 -0.885020 -2.885795
      ESP Fit Center  374 is at   2.871775 -0.053635 -2.885795
      ESP Fit Center  375 is at   1.911775 -0.053635 -2.885795
      ESP Fit Center  376 is at   1.431775 -0.885020 -2.885795
      ESP Fit Center  377 is at   1.911775 -1.716404 -2.885795
      ESP Fit Center  378 is at   2.871775 -1.716404 -2.885795
      ESP Fit Center  379 is at   2.391775 -0.885020 -3.143026
      ESP Fit Center  380 is at   2.288185 -1.903416  2.119560
      ESP Fit Center  381 is at   1.808185 -2.734800  1.862329
      ESP Fit Center  382 is at   2.768185 -2.734800  1.862329
      ESP Fit Center  383 is at   1.774362 -3.484803  1.159560
      ESP Fit Center  384 is at   2.802009 -3.484803  1.159560
      ESP Fit Center  385 is at   3.633394 -2.880767  1.159560
      ESP Fit Center  386 is at   2.288185 -3.823416  0.199560
      ESP Fit Center  387 is at   3.248185 -3.566185  0.199560
      ESP Fit Center  388 is at   3.950954 -2.863416  0.199560
      ESP Fit Center  389 is at   1.774362 -3.484803 -0.760440
      ESP Fit Center  390 is at   2.802009 -3.484803 -0.760440
      ESP Fit Center  391 is at   3.633394 -2.880767 -0.760440
      ESP Fit Center  392 is at   3.260796 -0.345873  3.414093
      ESP Fit Center  393 is at   4.220796 -0.345873  3.156862
      ESP Fit Center  394 is at   3.740796  0.485512  3.156862
      ESP Fit Center  395 is at   2.780796  0.485512  3.156862
      ESP Fit Center  396 is at   2.300796 -0.345873  3.156862
      ESP Fit Center  397 is at   2.780796 -1.177257  3.156862
      ESP Fit Center  398 is at   3.740796 -1.177257  3.156862
      ESP Fit Center  399 is at   4.923565 -0.345873  2.454093
      ESP Fit Center  400 is at   4.606004  0.631478  2.454093
      ESP Fit Center  401 is at   1.915588 -1.323224  2.454093
      ESP Fit Center  402 is at   2.746972 -1.927260  2.454093
      ESP Fit Center  403 is at   3.774620 -1.927260  2.454093
      ESP Fit Center  404 is at   4.606004 -1.323224  2.454093
      ESP Fit Center  405 is at   4.220796 -2.008641  1.494093
      ESP Fit Center  406 is at   4.923565 -1.305873  1.494093
      ESP Fit Center  407 is at   2.144321  0.901019  2.871396
      ESP Fit Center  408 is at   2.624321  1.732403  2.614165
      ESP Fit Center  409 is at   1.664321  1.732403  2.614165
      ESP Fit Center  410 is at   1.184321  0.901019  2.614165
      ESP Fit Center  411 is at   2.658145  2.482406  1.911396
      ESP Fit Center  412 is at   1.630497  2.482406  1.911396
      ESP Fit Center  413 is at   0.799113  1.878369  1.911396
      ESP Fit Center  414 is at   2.144321  2.821019  0.951396
      ESP Fit Center  415 is at   4.381420  1.410307  2.291514
[...]
  335 Fit       0.106917
  336 Fit       0.081972
  337 Fit       0.143245
  338 Fit       0.114836
  339 Fit       0.093322
  340 Fit       0.069667
  341 Fit       0.126742
  342 Fit       0.103279
  343 Fit       0.083837
  344 Fit       0.103440
  345 Fit       0.085445
  346 Fit       0.106289
  347 Fit       0.097771
  348 Fit       0.095254
  349 Fit       0.106914
  350 Fit       0.097979
  351 Fit       0.098206
  352 Fit       0.110577
  353 Fit       0.098697
  354 Fit       0.097109
  355 Fit       0.102325
  356 Fit       0.100167
  357 Fit       0.094724
  358 Fit       0.097120
  359 Fit       0.090307
  360 Fit       0.112167
  361 Fit       0.151986
  362 Fit       0.105114
  363 Fit       0.110302
  364 Fit       0.125924
  365 Fit       0.104351
  366 Fit       0.104743
  367 Fit       0.113641
  368 Fit       0.131350
  369 Fit       0.099402
  370 Fit       0.106745
  371 Fit       0.122184
  372 Fit       0.094387
  373 Fit       0.105710
  374 Fit       0.173432
  375 Fit       0.145583
  376 Fit       0.170737
  377 Fit       0.160242
  378 Fit       0.139320
  379 Fit       0.123848
  380 Fit       0.111319
  381 Fit       0.136377
  382 Fit       0.128944
  383 Fit       0.116357
  384 Fit       0.109593
  385 Fit       0.116457
  386 Fit       0.129091
  387 Fit       0.119425
  388 Fit       0.155951
  389 Fit       0.135392
  390 Fit       0.148763
  391 Fit       0.181851
  392 Fit       0.171391
  393 Fit       0.121479
  394 Fit       0.130993
  395 Fit       0.148374
  396 Fit       0.139061
  397 Fit       0.116450
  398 Fit       0.126806
  399 Fit       0.122805
  400 Fit       0.143453
  401 Fit       0.165613
  402 Fit       0.163600
  403 Fit       0.143913
  404 Fit       0.132008
  405 Fit       0.134993
  406 Fit       0.147810
  407 Fit       0.123549
  408 Fit       0.126401
  409 Fit       0.136526
  410 Fit       0.149901
  411 Fit       0.172800
  412 Fit       0.137734
  413 Fit       0.150298
  414 Fit       0.170504
  415 Fit       0.178892
  416 Fit       0.147105
  417 Fit       0.152850
  418 Fit       0.135400
  419 Fit       0.131934
  420 Fit       0.187074
  421 Fit       0.152942
  422 Fit       0.135301
  423 Fit       0.124592
  424 Fit       0.120166
  425 Fit       0.173854
  426 Fit       0.148264
  427 Fit       0.134877
  428 Fit       0.175379
  429 Fit       0.152184
  430 Fit       0.175012
  431 Fit       0.172055
  432 Fit       0.172599
  433 Fit       0.178106
  434 Fit       0.184269
  435 Fit       0.183886
  436 Fit       0.176760
  437 Fit       0.173780
  438 Fit       0.173306
  439 Fit       0.176769
  440 Fit       0.184463
  441 Fit       0.188085
  442 Fit       0.178821
  443 Fit       0.181476
  444 Fit       0.180818
  445 Fit       0.185583
  446 Fit       0.189420
  447 Fit       0.189994
  448 Fit       0.182022
  449 Fit       0.184183
  450 Fit       0.185706
  451 Fit       0.188406
  452 Fit       0.178312
  453 Fit       0.174834
  454 Fit       0.176787
  455 Fit       0.181820
  456 Fit       0.181578
  457 Fit       0.174450
  458 Fit       0.174388
  459 Fit       0.183308
  460 Fit       0.177214
  461 Fit       0.187830
  462 Fit       0.189931
  463 Fit       0.181375
  464 Fit       0.176896
  465 Fit       0.177457
  466 Fit       0.184059
  467 Fit       0.182444
  468 Fit       0.174207
  469 Fit       0.172334
  470 Fit       0.175743
  471 Fit       0.178794
  472 Fit       0.173372
  473 Fit       0.177016
  474 Fit       0.191816
  475 Fit       0.179514
  476 Fit       0.076215
  477 Fit       0.076025
  478 Fit       0.079478
  479 Fit       0.071551
  480 Fit       0.081749
  481 Fit       0.081364
  482 Fit       0.074405
  483 Fit       0.082474
  484 Fit       0.082076
  485 Fit       0.077916
  486 Fit       0.080674
  487 Fit       0.075933
  488 Fit       0.077038
  489 Fit       0.088274
  490 Fit       0.100432
  491 Fit       0.103741
  492 Fit       0.089939
  493 Fit       0.101385
  494 Fit       0.110180
  495 Fit       0.118417
  496 Fit       0.089844
  497 Fit       0.100660
  498 Fit       0.109425
  499 Fit       0.119243
  500 Fit       0.087671
  501 Fit       0.100148
  502 Fit       0.109808
  503 Fit       0.084862
  504 Fit       0.098853
  505 Fit       0.109293
  506 Fit       0.077687
  507 Fit       0.083789
  508 Fit       0.092777
  509 Fit       0.091743
  510 Fit       0.100743
  511 Fit       0.105663
  512 Fit       0.091435
  513 Fit       0.075593
  514 Fit       0.071450
  515 Fit       0.075349
  516 Fit       0.081533
  517 Fit       0.078540
  518 Fit       0.087284
  519 Fit       0.077890
  520 Fit       0.064229
  521 Fit       0.068516
  522 Fit       0.071303
  523 Fit       0.070131
  524 Fit       0.078101
  525 Fit       0.082861
  526 Fit       0.079067
  527 Fit       0.073148
  528 Fit       0.084229
  529 Fit       0.085999
  530 Fit       0.071761
  531 Fit       0.074467
  532 Fit       0.071604
  533 Fit       0.083395
  534 Fit       0.089074
  535 Fit       0.084331
  536 Fit       0.087960
  537 Fit       0.087790
  538 Fit       0.093946
  539 Fit       0.085017
  540 Fit       0.084386
  541 Fit       0.084849
  542 Fit       0.074254
  543 Fit       0.076658
  544 Fit       0.073284
  545 Fit       0.093111
  546 Fit       0.105678
  547 Fit       0.100912
  548 Fit       0.125577
  549 Fit       0.088642
  550 Fit       0.074175
  551 Fit       0.080226
  552 Fit       0.091660
  553 Fit       0.082845
  554 Fit       0.157019
  555 Fit       0.101033
  556 Fit       0.107089
  557 Fit       0.169639
  558 Fit       0.157082
  559 Fit       0.173535
  560 Fit       0.172595
  561 Fit       0.174074
  562 Fit       0.169418
  563 Fit       0.170239
  564 Fit       0.173055
  565 Fit       0.169620
  566 Fit       0.172690
  567 Fit       0.173188
  568 Fit       0.068913
  569 Fit       0.062752
  570 Fit       0.063129
  571 Fit       0.074112
  572 Fit       0.058350
  573 Fit       0.055285
  574 Fit       0.065451
  575 Fit       0.066735
  576 Fit       0.052969
  577 Fit       0.052735
  578 Fit       0.063638
  579 Fit       0.068379
  580 Fit       0.052285
  581 Fit       0.050688
  582 Fit       0.059922
  583 Fit       0.057333
  584 Fit       0.050382
  585 Fit       0.056307
  586 Fit       0.058952
  587 Fit       0.054495
  588 Fit       0.062367
  589 Fit       0.061524
  590 Fit       0.071012
  591 Fit       0.071023
  592 Fit       0.064901
  593 Fit       0.069150
  594 Fit       0.082738
  595 Fit       0.083985
  596 Fit       0.066227
  597 Fit       0.065440
  598 Fit       0.064654
  599 Fit       0.072336
  600 Fit       0.064810
  601 Fit       0.070880
  602 Fit       0.071192
  603 Fit       0.064506
  604 Fit       0.075061
  605 Fit       0.068649
  606 Fit       0.067874
  607 Fit       0.079064
  608 Fit       0.110154
  609 Fit       0.108350
  610 Fit       0.084903
  611 Fit       0.145811
  612 Fit       0.115032
  613 Fit       0.093509
  614 Fit       0.073489
  615 Fit       0.126883
  616 Fit       0.102899
  617 Fit       0.084565
  618 Fit       0.099869
  619 Fit       0.081837
  620 Fit       0.101281
  621 Fit       0.093161
  622 Fit       0.092028
  623 Fit       0.096413
  624 Fit       0.092281
  625 Fit       0.094934
  626 Fit       0.098185
  627 Fit       0.091916
  628 Fit       0.092831
  629 Fit       0.100283
  630 Fit       0.102596
  631 Fit       0.091833
  632 Fit       0.089865
  633 Fit       0.094549
  634 Fit       0.086391
  635 Fit       0.109402
  636 Fit       0.101041
  637 Fit       0.108160
  638 Fit       0.125499
  639 Fit       0.098771
  640 Fit       0.101208
  641 Fit       0.111284
  642 Fit       0.130771
  643 Fit       0.096190
  644 Fit       0.104313
  645 Fit       0.120771
  646 Fit       0.102050
  647 Fit       0.143483
  648 Fit       0.165634
  649 Fit       0.155780
  650 Fit       0.135971
  651 Fit       0.120527
  652 Fit       0.130213
  653 Fit       0.122192
  654 Fit       0.109717
  655 Fit       0.103357
  656 Fit       0.123532
  657 Fit       0.113164
  658 Fit       0.154303
  659 Fit       0.130569
  660 Fit       0.145592
  661 Fit       0.166365
  662 Fit       0.117116
  663 Fit       0.126652
  664 Fit       0.143939
  665 Fit       0.133280
  666 Fit       0.110227
  667 Fit       0.120381
  668 Fit       0.116923
  669 Fit       0.135128
  670 Fit       0.157064
  671 Fit       0.123950
  672 Fit       0.126626
  673 Fit       0.139094
  674 Fit       0.114932
  675 Fit       0.121920
  676 Fit       0.131271
  677 Fit       0.144385
  678 Fit       0.166705
  679 Fit       0.145644
  680 Fit       0.166559
  681 Fit       0.139112
  682 Fit       0.144268
  683 Fit       0.126925
  684 Fit       0.123909
  685 Fit       0.148538
  686 Fit       0.130218
  687 Fit       0.119230
  688 Fit       0.112264
  689 Fit       0.170757
  690 Fit       0.143709
  691 Fit       0.129479
  692 Fit       0.147518
  693 Fit       0.160738
  694 Fit       0.157676
  695 Fit       0.158224
  696 Fit       0.163883
  697 Fit       0.169892
  698 Fit       0.162526
  699 Fit       0.159438
  700 Fit       0.158806
  701 Fit       0.161509
  702 Fit       0.167592
  703 Fit       0.171887
  704 Fit       0.163857
  705 Fit       0.167191
  706 Fit       0.166329
  707 Fit       0.170065
  708 Fit       0.172749
  709 Fit       0.167485
  710 Fit       0.170511
  711 Fit       0.171381
  712 Fit       0.170877
  713 Fit       0.162904
  714 Fit       0.160513
  715 Fit       0.162916
  716 Fit       0.167546
  717 Fit       0.164874
  718 Fit       0.159738
  719 Fit       0.160436
  720 Fit       0.168980
  721 Fit       0.163057
  722 Fit       0.173598
  723 Fit       0.167628
  724 Fit       0.162907
  725 Fit       0.162539
  726 Fit       0.167080
  727 Fit       0.168165
  728 Fit       0.160354
  729 Fit       0.157928
  730 Fit       0.159914
  731 Fit       0.164531
  732 Fit       0.159068
  733 Fit       0.162954
  734 Fit       0.165417
  735 Fit       0.071351
  736 Fit       0.073944
  737 Fit       0.073010
  738 Fit       0.076200
  739 Fit       0.073597
  740 Fit       0.076365
  741 Fit       0.068921
  742 Fit       0.074234
  743 Fit       0.072242
  744 Fit       0.071098
  745 Fit       0.082230
  746 Fit       0.092790
  747 Fit       0.096942
  748 Fit       0.087618
  749 Fit       0.095783
  750 Fit       0.103454
  751 Fit       0.087101
  752 Fit       0.094963
  753 Fit       0.102634
  754 Fit       0.086284
  755 Fit       0.095045
  756 Fit       0.103539
  757 Fit       0.091516
  758 Fit       0.108096
  759 Fit       0.077975
  760 Fit       0.083412
  761 Fit       0.090555
  762 Fit       0.091689
  763 Fit       0.099161
  764 Fit       0.102787
  765 Fit       0.077508
  766 Fit       0.088414
  767 Fit       0.074862
  768 Fit       0.071448
  769 Fit       0.075734
  770 Fit       0.080745
  771 Fit       0.077716
  772 Fit       0.087128
  773 Fit       0.078118
  774 Fit       0.064742
  775 Fit       0.067071
  776 Fit       0.070259
  777 Fit       0.069878
  778 Fit       0.076997
  779 Fit       0.082644
  780 Fit       0.078064
  781 Fit       0.072311
  782 Fit       0.080895
  783 Fit       0.079382
  784 Fit       0.069838
  785 Fit       0.072508
  786 Fit       0.070645
  787 Fit       0.082616
  788 Fit       0.089177
  789 Fit       0.084568
  790 Fit       0.084834
  791 Fit       0.086364
  792 Fit       0.090600
  793 Fit       0.078955
  794 Fit       0.079400
  795 Fit       0.080683
  796 Fit       0.072666
  797 Fit       0.074927
  798 Fit       0.073353
  799 Fit       0.093235
  800 Fit       0.104929
  801 Fit       0.099264
  802 Fit       0.102318
  803 Fit       0.097267
  804 Fit       0.084894
  805 Fit       0.074489
  806 Fit       0.079198
  807 Fit       0.089072
  808 Fit       0.082385
  809 Fit       0.141868
  810 Fit       0.096936
  811 Fit       0.101804
  812 Fit       0.112947
  813 Fit       0.153826
  814 Fit       0.144407
  815 Fit       0.123265
  816 Fit       0.114258
  817 Fit       0.158545
  818 Fit       0.156893
  819 Fit       0.158864
  820 Fit       0.158550
  821 Fit       0.155775
  822 Fit       0.156287
  823 Fit       0.157170
  824 Fit       0.157486
  825 Fit       0.157156
  826 Fit       0.156932
  827 Fit       0.154181
  828 Fit       0.154727
  829 Fit       0.155407
  830 Fit       0.157514
  831 Fit       0.158575
  832 Fit       0.158645
  833 Fit       0.158015
  834 Fit       0.069143
  835 Fit       0.065398
  836 Fit       0.063655
  837 Fit       0.069577
  838 Fit       0.076875
  839 Fit       0.063692
  840 Fit       0.057796
  841 Fit       0.060721
  842 Fit       0.071853
  843 Fit       0.058216
  844 Fit       0.054346
  845 Fit       0.058820
  846 Fit       0.062047
  847 Fit       0.053461
  848 Fit       0.053210
  849 Fit       0.059482
  850 Fit       0.057434
  851 Fit       0.051922
  852 Fit       0.054726
  853 Fit       0.063184
  854 Fit       0.062500
  855 Fit       0.053859
  856 Fit       0.054084
  857 Fit       0.060059
  858 Fit       0.066488
  859 Fit       0.061239
  860 Fit       0.056527
  861 Fit       0.061515
  862 Fit       0.062524
  863 Fit       0.070703
  864 Fit       0.070468
  865 Fit       0.065430
  866 Fit       0.068183
  867 Fit       0.077873
  868 Fit       0.080277
  869 Fit       0.066889
  870 Fit       0.063422
  871 Fit       0.068383
  872 Fit       0.064825
  873 Fit       0.065238
  874 Fit       0.065142
  875 Fit       0.065315
  876 Fit       0.066350
  877 Fit       0.064395
  878 Fit       0.072874
  879 Fit       0.064253
  880 Fit       0.066382
  881 Fit       0.075849
  882 Fit       0.067347
  883 Fit       0.067199
  884 Fit       0.075019
  885 Fit       0.105732
  886 Fit       0.083299
  887 Fit       0.117540
  888 Fit       0.094910
  889 Fit       0.076426
  890 Fit       0.113321
  891 Fit       0.093186
  892 Fit       0.076849
  893 Fit       0.098108
  894 Fit       0.081820
  895 Fit       0.095760
  896 Fit       0.089023
  897 Fit       0.091312
  898 Fit       0.088156
  899 Fit       0.090905
  900 Fit       0.090574
  901 Fit       0.087527
  902 Fit       0.089944
  903 Fit       0.099169
  904 Fit       0.088776
  905 Fit       0.086521
  906 Fit       0.089579
  907 Fit       0.093002
  908 Fit       0.086182
  909 Fit       0.085277
  910 Fit       0.097795
  911 Fit       0.104889
  912 Fit       0.121949
  913 Fit       0.095703
  914 Fit       0.099439
  915 Fit       0.110457
  916 Fit       0.131198
  917 Fit       0.093256
  918 Fit       0.097665
  919 Fit       0.108512
  920 Fit       0.091749
  921 Fit       0.099627
  922 Fit       0.114957
  923 Fit       0.098100
  924 Fit       0.152230
  925 Fit       0.132938
  926 Fit       0.146712
  927 Fit       0.139187
  928 Fit       0.124567
  929 Fit       0.111894
  930 Fit       0.102143
  931 Fit       0.121362
  932 Fit       0.114570
  933 Fit       0.104171
  934 Fit       0.099278
  935 Fit       0.107686
  936 Fit       0.153647
  937 Fit       0.132155
  938 Fit       0.150868
  939 Fit       0.121708
  940 Fit       0.135262
  941 Fit       0.148626
  942 Fit       0.109677
  943 Fit       0.118115
  944 Fit       0.131950
  945 Fit       0.124789
  946 Fit       0.105288
  947 Fit       0.113916
  948 Fit       0.127817
  949 Fit       0.145002
  950 Fit       0.118287
  951 Fit       0.120232
  952 Fit       0.130697
  953 Fit       0.111005
  954 Fit       0.115701
  955 Fit       0.123171
  956 Fit       0.134224
  957 Fit       0.152093
  958 Fit       0.126298
  959 Fit       0.136297
  960 Fit       0.153674
  961 Fit       0.148182
  962 Fit       0.135640
  963 Fit       0.120872
  964 Fit       0.118769
  965 Fit       0.138418
  966 Fit       0.122439
  967 Fit       0.112936
  968 Fit       0.108257
  969 Fit       0.136235
  970 Fit       0.122190
  971 Fit       0.112602
  972 Fit       0.144950
  973 Fit       0.129464
  974 Fit       0.148868
  975 Fit       0.145925
  976 Fit       0.146378
  977 Fit       0.151159
  978 Fit       0.156123
  979 Fit       0.150095
  980 Fit       0.146522
  981 Fit       0.145931
  982 Fit       0.148117
  983 Fit       0.153118
  984 Fit       0.156444
  985 Fit       0.150102
  986 Fit       0.150942
  987 Fit       0.150006
  988 Fit       0.151999
  989 Fit       0.156577
  990 Fit       0.155360
  991 Fit       0.158856
  992 Fit       0.158238
  993 Fit       0.152107
  994 Fit       0.150811
  995 Fit       0.154023
  996 Fit       0.156745
  997 Fit       0.155360
  998 Fit       0.149231
  999 Fit       0.147610
 1000 Fit       0.149834
 1001 Fit       0.155418
 1002 Fit       0.153328
 1003 Fit       0.148445
 1004 Fit       0.149043
 1005 Fit       0.157292
 1006 Fit       0.152180
 1007 Fit       0.155767
 1008 Fit       0.154168
 1009 Fit       0.157180
 1010 Fit       0.152276
 1011 Fit       0.148408
 1012 Fit       0.147775
 1013 Fit       0.150570
 1014 Fit       0.158177
 1015 Fit       0.154556
 1016 Fit       0.147940
 1017 Fit       0.145847
 1018 Fit       0.147738
 1019 Fit       0.152388
 1020 Fit       0.147754
 1021 Fit       0.151211
 1022 Fit       0.153550
 1023 Fit       0.068223
 1024 Fit       0.070083
 1025 Fit       0.068572
 1026 Fit       0.070924
 1027 Fit       0.067448
 1028 Fit       0.070803
 1029 Fit       0.070667
 1030 Fit       0.065891
 1031 Fit       0.069857
 1032 Fit       0.070410
 1033 Fit       0.064138
 1034 Fit       0.068652
 1035 Fit       0.067128
 1036 Fit       0.085936
 1037 Fit       0.089898
 1038 Fit       0.081155
 1039 Fit       0.088022
 1040 Fit       0.094700
 1041 Fit       0.077280
 1042 Fit       0.083869
 1043 Fit       0.090129
 1044 Fit       0.097156
 1045 Fit       0.076688
 1046 Fit       0.083467
 1047 Fit       0.089904
 1048 Fit       0.097252
 1049 Fit       0.079872
 1050 Fit       0.087261
 1051 Fit       0.094621
 1052 Fit       0.084790
 -----------------------------------------------------------------
 Leave Link  602 at Tue Jun 13 10:48:20 2023, MaxMem=  2147483648 cpu:               1.5 elap:               0.1

 Test job not archived.
 1\1\GINC-LOCALHOST\FOpt\RHF\6-31G(d)\C8H12N1O2(1+)\USER\13-Jun-2023\0\
 \# opt HF/6-31g* Pop=MK iop(6/33=2)\\title\\1,1\C,107.0535793861,121.2
 443210861,121.7236784971\C,107.3209210829,122.6011439439,121.909559455
 6\C,106.3391294726,123.4562571671,122.3545153406\C,105.0601350969,122.
 9564405156,122.6207798626\C,104.7903641714,121.6201898156,122.43723526
 19\C,105.7882536635,120.7597967025,121.9889230769\C,108.1620624543,120
 .3191030987,121.2671673204\C,109.0270107656,119.9137974492,122.4572984
 454\N,110.169428854,119.0142046013,122.0050722053\O,106.6225938228,124
 .7548078124,122.5240377539\O,104.1648821862,123.873071534,123.05020944
 27\H,108.2885810684,123.0189672688,121.6938901101\H,103.803263763,121.
 2412391931,122.6365778504\H,105.5542201534,119.7205076869,121.84036210
 31\H,108.7779472624,120.8131835222,120.520410602\H,107.7399078548,119.
 4321325875,120.8043827512\H,108.4704974756,119.3500999111,123.19083485
 7\H,109.4872345541,120.7645110544,122.9365061761\H,110.7556432197,118.
 7314571178,122.7788786003\H,109.8239403617,118.172794343,121.564043003
 3\H,110.7614465594,119.4826870795,121.3327204704\H,105.8483628286,125.
 2289553201,122.805274883\H,103.2985939426,123.5052311891,123.163641930
 7\\Version=ES64L-G16RevC.01\State=1-A\HF=-513.8770602\RMSD=6.018e-09\R
 MSF=1.533e-05\Dipole=3.9697467,-4.6684559,-0.1089467\Quadrupole=21.905
 28,2.2720711,-24.1773511,-31.022008,-5.2090418,3.0368832\PG=C01 [X(C8H
 12N1O2)]\\@


 ANYONE WHO IS NOT SHOCKED BY QUANTUM THEORY HAS
 NOT UNDERSTOOD IT. -- NIELS BOHR(1885-1962)
 Job cpu time:       0 days  0 hours 27 minutes 45.6 seconds.
 Elapsed time:       0 days  0 hours  1 minutes 48.8 seconds.
 File lengths (MBytes):  RWF=     26 Int=      0 D2E=      0 Chk=      4 Scr=      1
 Normal termination of Gaussian 16 at Tue Jun 13 10:48:20 2023.
