 Entering Gaussian System, Link 0=g16
 Input=LNR.com
 Output=LNR.log
 Initial command:
 /opt/gaussian16//g16/l1.exe "/home/user/software/tmp/g16scr/Gau-17012.inp" -scrdir="/home/user/software/tmp/g16scr/"
 Default is to use a total of   8 processors:
                                8 via shared-memory
                                1 via Linda
 Entering Link 1 = /opt/gaussian16//g16/l1.exe PID=     17013.
  
 Copyright (c) 1988-2019, Gaussian, Inc.  All Rights Reserved.
  
 This is part of the Gaussian(R) 16 program.  It is based on
 the Gaussian(R) 09 system (copyright 2009, Gaussian, Inc.),
 the Gaussian(R) 03 system (copyright 2003, Gaussian, Inc.),
 the Gaussian(R) 98 system (copyright 1998, Gaussian, Inc.),
 the Gaussian(R) 94 system (copyright 1995, Gaussian, Inc.),
 the Gaussian 92(TM) system (copyright 1992, Gaussian, Inc.),
 the Gaussian 90(TM) system (copyright 1990, Gaussian, Inc.),
 the Gaussian 88(TM) system (copyright 1988, Gaussian, Inc.),
 the Gaussian 86(TM) system (copyright 1986, Carnegie Mellon
 University), and the Gaussian 82(TM) system (copyright 1983,
 Carnegie Mellon University). Gaussian is a federally registered
 trademark of Gaussian, Inc.
  
 This software contains proprietary and confidential information,
 including trade secrets, belonging to Gaussian, Inc.
  
 This software is provided under written license and may be
 used, copied, transmitted, or stored only in accord with that
 written license.
  
 The following legend is applicable only to US Government
 contracts under FAR:
  
                    RESTRICTED RIGHTS LEGEND
  
 Use, reproduction and disclosure by the US Government is
 subject to restrictions as set forth in subparagraphs (a)
 and (c) of the Commercial Computer Software - Restricted
 Rights clause in FAR 52.227-19.
  
 Gaussian, Inc.
 340 Quinnipiac St., Bldg. 40, Wallingford CT 06492
  
  
 ---------------------------------------------------------------
 Warning -- This program may not be used in any manner that
 competes with the business of Gaussian, Inc. or will provide
 assistance to any competitor of Gaussian, Inc.  The licensee
 of this program is prohibited from giving any competitor of
 Gaussian, Inc. access to this program.  By using this program,
 the user acknowledges that Gaussian, Inc. is engaged in the
 business of creating and licensing software in the field of
 computational chemistry and represents and warrants to the
 licensee that it is not a competitor of Gaussian, Inc. and that
 it will not use this program in any manner prohibited above.
 ---------------------------------------------------------------
  

 Cite this work as:
 Gaussian 16, Revision C.01,
 M. J. Frisch, G. W. Trucks, H. B. Schlegel, G. E. Scuseria, 
 M. A. Robb, J. R. Cheeseman, G. Scalmani, V. Barone, 
 G. A. Petersson, H. Nakatsuji, X. Li, M. Caricato, A. V. Marenich, 
 J. Bloino, B. G. Janesko, R. Gomperts, B. Mennucci, H. P. Hratchian, 
 J. V. Ortiz, A. F. Izmaylov, J. L. Sonnenberg, D. Williams-Young, 
 F. Ding, F. Lipparini, F. Egidi, J. Goings, B. Peng, A. Petrone, 
 T. Henderson, D. Ranasinghe, V. G. Zakrzewski, J. Gao, N. Rega, 
 G. Zheng, W. Liang, M. Hada, M. Ehara, K. Toyota, R. Fukuda, 
 J. Hasegawa, M. Ishida, T. Nakajima, Y. Honda, O. Kitao, H. Nakai, 
 T. Vreven, K. Throssell, J. A. Montgomery, Jr., J. E. Peralta, 
 F. Ogliaro, M. J. Bearpark, J. J. Heyd, E. N. Brothers, K. N. Kudin, 
 V. N. Staroverov, T. A. Keith, R. Kobayashi, J. Normand, 
 K. Raghavachari, A. P. Rendell, J. C. Burant, S. S. Iyengar, 
 J. Tomasi, M. Cossi, J. M. Millam, M. Klene, C. Adamo, R. Cammi, 
 J. W. Ochterski, R. L. Martin, K. Morokuma, O. Farkas, 
 J. B. Foresman, and D. J. Fox, Gaussian, Inc., Wallingford CT, 2019.
 
 ******************************************
 Gaussian 16:  ES64L-G16RevC.01  3-Jul-2019
                13-Jun-2023 
 ******************************************
 %nprocs=16
 Will use up to   16 processors via shared memory.
 %mem=16GB
 %chk=LNR.chk
 ----------------------------------
 # opt HF/6-31g* Pop=MK iop(6/33=2)
 ----------------------------------
 1/18=20,19=15,38=1/1,3;
 2/9=110,12=2,17=6,18=5,40=1/2;
 3/5=1,6=6,7=1,11=9,25=1,30=1,71=1/1,2,3;
 4//1;
 5/5=2,38=5/2;
 6/7=2,8=2,9=2,10=2,15=8,20=1,28=1,33=2/1,2;
 7//1,2,3,16;
 1/18=20,19=15/3(2);
 2/9=110/2;
 99//99;
 2/9=110/2;
 3/5=1,6=6,7=1,11=9,25=1,30=1,71=1/1,2,3;
 4/5=5,16=3,69=1/1;
 5/5=2,38=5/2;
 7//1,2,3,16;
 1/18=20,19=15/3(-5);
 2/9=110/2;
 6/7=2,8=2,9=2,10=2,15=8,19=2,20=1,28=1,33=2/1,2;
 99/9=1/99;
 -----
 title
 -----
 Symbolic Z-matrix:
 Charge =  1 Multiplicity = 1
 C                     103.09    121.459   120.055 
 C                     103.891   120.327   120.084 
 C                     105.843   121.69    120.199 
 C                     107.113   119.2     119.011 
 C                     103.674   122.706   120.096 
 C                     105.058   122.826   120.173 
 C                     105.266   120.435   120.155 
 C                     106.147   119.203   120.192 
 N                     108.026   118.06    119.066 
 O                     102.912   123.83    120.068 
 O                     105.617   124.077   120.217 
 O                     105.372   118.028   120.162 
 H                     102.016   121.3593   120.0006 
 H                     103.4407   119.3459   120.051 
 H                     106.918   121.7776   120.2542 
 H                     107.6883   120.1258   119.0107 
 H                     106.5474   119.1671   118.0798 
 H                     106.7256   119.2156   121.1157 
 H                     108.6495   118.0888   118.272 
 H                     108.5655   118.101   119.9188 
 H                     107.4947   117.2013   119.0452 
 H                     103.4799   124.6032   120.1038 
 H                     104.9227   124.7394   120.1898 
 H                     104.7629   118.0268   120.9041 
 

 GradGradGradGradGradGradGradGradGradGradGradGradGradGradGradGradGradGrad
 Berny optimization.
 Initialization pass.
                           ----------------------------
                           !    Initial Parameters    !
                           ! (Angstroms and Degrees)  !
 --------------------------                            --------------------------
 ! Name  Definition              Value          Derivative Info.                !
 --------------------------------------------------------------------------------
 ! R1    R(1,2)                  1.387          estimate D2E/DX2                !
 ! R2    R(1,5)                  1.3776         estimate D2E/DX2                !
 ! R3    R(1,13)                 1.08           estimate D2E/DX2                !
 ! R4    R(2,7)                  1.3811         estimate D2E/DX2                !
 ! R5    R(2,14)                 1.08           estimate D2E/DX2                !
 ! R6    R(3,6)                  1.3811         estimate D2E/DX2                !
 ! R7    R(3,7)                  1.382          estimate D2E/DX2                !
 ! R8    R(3,15)                 1.08           estimate D2E/DX2                !
 ! R9    R(4,8)                  1.5258         estimate D2E/DX2                !
 ! R10   R(4,9)                  1.4616         estimate D2E/DX2                !
 ! R11   R(4,16)                 1.09           estimate D2E/DX2                !
 ! R12   R(4,17)                 1.09           estimate D2E/DX2                !
 ! R13   R(5,6)                  1.3913         estimate D2E/DX2                !
 ! R14   R(5,10)                 1.3582         estimate D2E/DX2                !
 ! R15   R(6,11)                 1.3709         estimate D2E/DX2                !
 ! R16   R(7,8)                  1.515          estimate D2E/DX2                !
 ! R17   R(8,12)                 1.4079         estimate D2E/DX2                !
 ! R18   R(8,18)                 1.09           estimate D2E/DX2                !
 ! R19   R(9,19)                 1.01           estimate D2E/DX2                !
 ! R20   R(9,20)                 1.01           estimate D2E/DX2                !
 ! R21   R(9,21)                 1.01           estimate D2E/DX2                !
 ! R22   R(10,22)                0.96           estimate D2E/DX2                !
 ! R23   R(11,23)                0.96           estimate D2E/DX2                !
 ! R24   R(12,24)                0.9601         estimate D2E/DX2                !
 ! A1    A(2,1,5)              119.5595         estimate D2E/DX2                !
 ! A2    A(2,1,13)             120.0            estimate D2E/DX2                !
 ! A3    A(5,1,13)             120.4405         estimate D2E/DX2                !
 ! A4    A(1,2,7)              120.8111         estimate D2E/DX2                !
 ! A5    A(1,2,14)             119.998          estimate D2E/DX2                !
 ! A6    A(7,2,14)             119.1909         estimate D2E/DX2                !
 ! A7    A(6,3,7)              120.6004         estimate D2E/DX2                !
 ! A8    A(6,3,15)             120.0012         estimate D2E/DX2                !
 ! A9    A(7,3,15)             119.3983         estimate D2E/DX2                !
 ! A10   A(8,4,9)              111.5863         estimate D2E/DX2                !
 ! A11   A(8,4,16)             109.4334         estimate D2E/DX2                !
 ! A12   A(8,4,17)             109.4389         estimate D2E/DX2                !
 ! A13   A(9,4,16)             109.4387         estimate D2E/DX2                !
 ! A14   A(9,4,17)             109.4354         estimate D2E/DX2                !
 ! A15   A(16,4,17)            107.4141         estimate D2E/DX2                !
 ! A16   A(1,5,6)              120.0938         estimate D2E/DX2                !
 ! A17   A(1,5,10)             120.7072         estimate D2E/DX2                !
 ! A18   A(6,5,10)             119.1984         estimate D2E/DX2                !
 ! A19   A(3,6,5)              119.7027         estimate D2E/DX2                !
 ! A20   A(3,6,11)             121.213          estimate D2E/DX2                !
 ! A21   A(5,6,11)             119.0839         estimate D2E/DX2                !
 ! A22   A(2,7,3)              119.2311         estimate D2E/DX2                !
 ! A23   A(2,7,8)              121.1054         estimate D2E/DX2                !
 ! A24   A(3,7,8)              119.6628         estimate D2E/DX2                !
 ! A25   A(4,8,7)              110.54           estimate D2E/DX2                !
 ! A26   A(4,8,12)             109.2921         estimate D2E/DX2                !
 ! A27   A(4,8,18)             108.6558         estimate D2E/DX2                !
 ! A28   A(7,8,12)             110.9802         estimate D2E/DX2                !
 ! A29   A(7,8,18)             108.6607         estimate D2E/DX2                !
 ! A30   A(12,8,18)            108.6569         estimate D2E/DX2                !
 ! A31   A(4,9,19)             109.5005         estimate D2E/DX2                !
 ! A32   A(4,9,20)             109.4995         estimate D2E/DX2                !
 ! A33   A(4,9,21)             109.4976         estimate D2E/DX2                !
 ! A34   A(19,9,20)            109.445          estimate D2E/DX2                !
 ! A35   A(19,9,21)            109.4393         estimate D2E/DX2                !
 ! A36   A(20,9,21)            109.4454         estimate D2E/DX2                !
 ! A37   A(5,10,22)            109.5035         estimate D2E/DX2                !
 ! A38   A(6,11,23)            109.502          estimate D2E/DX2                !
 ! A39   A(8,12,24)            109.5003         estimate D2E/DX2                !
 ! D1    D(5,1,2,7)              0.0755         estimate D2E/DX2                !
 ! D2    D(5,1,2,14)          -179.9267         estimate D2E/DX2                !
 ! D3    D(13,1,2,7)          -179.9256         estimate D2E/DX2                !
 ! D4    D(13,1,2,14)            0.0723         estimate D2E/DX2                !
 ! D5    D(2,1,5,6)             -0.3328         estimate D2E/DX2                !
 ! D6    D(2,1,5,10)           179.9577         estimate D2E/DX2                !
 ! D7    D(13,1,5,6)           179.6682         estimate D2E/DX2                !
 ! D8    D(13,1,5,10)           -0.0412         estimate D2E/DX2                !
 ! D9    D(1,2,7,3)              0.0803         estimate D2E/DX2                !
 ! D10   D(1,2,7,8)            179.7808         estimate D2E/DX2                !
 ! D11   D(14,2,7,3)          -179.9176         estimate D2E/DX2                !
 ! D12   D(14,2,7,8)            -0.217          estimate D2E/DX2                !
 ! D13   D(7,3,6,5)             -0.2784         estimate D2E/DX2                !
 ! D14   D(7,3,6,11)           179.9534         estimate D2E/DX2                !
 ! D15   D(15,3,6,5)           179.7232         estimate D2E/DX2                !
 ! D16   D(15,3,6,11)           -0.045          estimate D2E/DX2                !
 ! D17   D(6,3,7,2)              0.0226         estimate D2E/DX2                !
 ! D18   D(6,3,7,8)           -179.6823         estimate D2E/DX2                !
 ! D19   D(15,3,7,2)          -179.9789         estimate D2E/DX2                !
 ! D20   D(15,3,7,8)             0.3161         estimate D2E/DX2                !
 ! D21   D(9,4,8,7)            176.7468         estimate D2E/DX2                !
 ! D22   D(9,4,8,12)           -60.8243         estimate D2E/DX2                !
 ! D23   D(9,4,8,18)            57.5943         estimate D2E/DX2                !
 ! D24   D(16,4,8,7)            55.4741         estimate D2E/DX2                !
 ! D25   D(16,4,8,12)          177.9031         estimate D2E/DX2                !
 ! D26   D(16,4,8,18)          -63.6783         estimate D2E/DX2                !
 ! D27   D(17,4,8,7)           -61.981          estimate D2E/DX2                !
 ! D28   D(17,4,8,12)           60.448          estimate D2E/DX2                !
 ! D29   D(17,4,8,18)          178.8666         estimate D2E/DX2                !
 ! D30   D(8,4,9,19)           179.9977         estimate D2E/DX2                !
 ! D31   D(8,4,9,20)           -59.9992         estimate D2E/DX2                !
 ! D32   D(8,4,9,21)            60.0027         estimate D2E/DX2                !
 ! D33   D(16,4,9,19)          -58.7327         estimate D2E/DX2                !
 ! D34   D(16,4,9,20)           61.2704         estimate D2E/DX2                !
 ! D35   D(16,4,9,21)         -178.7277         estimate D2E/DX2                !
 ! D36   D(17,4,9,19)           58.7234         estimate D2E/DX2                !
 ! D37   D(17,4,9,20)          178.7266         estimate D2E/DX2                !
 ! D38   D(17,4,9,21)          -61.2716         estimate D2E/DX2                !
 ! D39   D(1,5,6,3)              0.4345         estimate D2E/DX2                !
 ! D40   D(1,5,6,11)          -179.7924         estimate D2E/DX2                !
 ! D41   D(10,5,6,3)          -179.8517         estimate D2E/DX2                !
 ! D42   D(10,5,6,11)           -0.0786         estimate D2E/DX2                !
 ! D43   D(1,5,10,22)          179.9998         estimate D2E/DX2                !
 ! D44   D(6,5,10,22)            0.2878         estimate D2E/DX2                !
 ! D45   D(3,6,11,23)         -179.998          estimate D2E/DX2                !
 ! D46   D(5,6,11,23)            0.2324         estimate D2E/DX2                !
 ! D47   D(2,7,8,4)            120.6832         estimate D2E/DX2                !
 ! D48   D(2,7,8,12)            -0.7526         estimate D2E/DX2                !
 ! D49   D(2,7,8,18)          -120.1674         estimate D2E/DX2                !
 ! D50   D(3,7,8,4)            -59.6176         estimate D2E/DX2                !
 ! D51   D(3,7,8,12)           178.9467         estimate D2E/DX2                !
 ! D52   D(3,7,8,18)            59.5319         estimate D2E/DX2                !
 ! D53   D(4,8,12,24)          180.0            estimate D2E/DX2                !
 ! D54   D(7,8,12,24)          -57.8351         estimate D2E/DX2                !
 ! D55   D(18,8,12,24)          61.5821         estimate D2E/DX2                !
 --------------------------------------------------------------------------------
 Trust Radius=3.00D-01 FncErr=1.00D-07 GrdErr=1.00D-07 EigMax=2.50D+02 EigMin=1.00D-04
 Number of steps in this run=    128 maximum allowed number of steps=    144.
 GradGradGradGradGradGradGradGradGradGradGradGradGradGradGradGradGradGrad

                          Input orientation:                          
 ---------------------------------------------------------------------
 Center     Atomic      Atomic             Coordinates (Angstroms)
 Number     Number       Type             X           Y           Z
 ---------------------------------------------------------------------
      1          6           0      103.090000  121.459000  120.055000
      2          6           0      103.891000  120.327000  120.084000
      3          6           0      105.843000  121.690000  120.199000
      4          6           0      107.113000  119.200000  119.011000
      5          6           0      103.674000  122.706000  120.096000
      6          6           0      105.058000  122.826000  120.173000
      7          6           0      105.266000  120.435000  120.155000
      8          6           0      106.147000  119.203000  120.192000
      9          7           0      108.026000  118.060000  119.066000
     10          8           0      102.912000  123.830000  120.068000
     11          8           0      105.617000  124.077000  120.217000
     12          8           0      105.372000  118.028000  120.162000
     13          1           0      102.016000  121.359300  120.000600
     14          1           0      103.440700  119.345900  120.051000
     15          1           0      106.918000  121.777600  120.254200
     16          1           0      107.688300  120.125800  119.010700
     17          1           0      106.547400  119.167100  118.079800
     18          1           0      106.725600  119.215600  121.115700
     19          1           0      108.649500  118.088800  118.272000
     20          1           0      108.565500  118.101000  119.918800
     21          1           0      107.494700  117.201300  119.045200
     22          1           0      103.479900  124.603200  120.103800
     23          1           0      104.922700  124.739400  120.189800
     24          1           0      104.762900  118.026800  120.904100
 ---------------------------------------------------------------------
                    Distance matrix (angstroms):
                    1          2          3          4          5
     1  C    0.000000
     2  C    1.387035   0.000000
     3  C    2.766425   2.383547   0.000000
     4  C    4.730491   3.578092   3.037161   0.000000
     5  C    1.377587   2.388906   2.397379   5.029511   0.000000
     6  C    2.399091   2.759495   1.381085   4.326794   1.391325
     7  C    2.406980   1.381061   1.381988   2.499074   2.774056
     8  C    3.801783   2.522811   2.505521   1.525754   4.289050
     9  N    6.074160   4.824297   4.384755   1.461572   6.448730
    10  O    2.377708   3.637266   3.631463   6.340548   1.358236
    11  O    3.642238   4.130286   2.397742   5.241906   2.381078
    12  O    4.121982   2.735845   3.692351   2.393630   4.977072
    13  H    1.079989   2.142014   3.846382   5.623281   2.138145
    14  H    2.142008   1.080008   3.359725   3.819512   3.368490
    15  H    3.846397   3.360943   1.079975   2.868378   3.377942
    16  H    4.900240   3.951195   2.695164   1.089989   4.893865
    17  H    4.594326   3.524010   3.369304   1.090009   4.984506
    18  H    4.401763   3.214743   2.782441   2.140113   4.747098
    19  H    6.741319   5.562032   4.955645   2.035121   7.028592
    20  H    6.424626   5.180089   4.513473   2.035106   6.720431
    21  H    6.208791   4.882188   4.920142   2.035108   6.782599
    22  H    3.168659   4.295961   3.752338   6.602136   1.907119
    23  H    3.760051   4.532645   3.185259   6.072227   2.388046
    24  H    3.911465   2.593009   3.883660   3.237776   4.871719
                    6          7          8          9         10
     6  C    0.000000
     7  C    2.400098   0.000000
     8  C    3.783175   1.515043   0.000000
     9  N    5.722694   3.800545   2.470823   0.000000
    10  O    2.371573   4.132180   5.647099   7.774953   0.000000
    11  O    1.370919   3.659400   4.902795   6.582733   2.720337
    12  O    4.808276   2.409343   1.407888   2.871577   6.302669
    13  H    3.381523   3.382406   4.663842   6.919462   2.629015
    14  H    3.839484   2.128068   2.713736   4.862997   4.515193
    15  H    2.136665   2.131084   2.688285   4.057097   4.505003
    16  H    3.944680   2.696769   2.150031   2.093951   6.136124
    17  H    4.470721   2.748820   2.150116   2.093924   6.237925
    18  H    4.087121   2.130801   1.090027   2.688442   6.077327
    19  H    6.241293   4.527518   3.345198   1.009959   8.312996
    20  H    5.890059   4.048462   2.671738   1.009955   8.050203
    21  H    6.232711   4.081124   2.671750   1.009989   8.123234
    22  H    2.377736   4.535049   6.023567   8.034769   0.960016
    23  H    1.918251   4.318209   5.670153   7.450354   2.210149
    24  H    4.863529   2.571709   1.950965   3.745335   6.148335
                   11         12         13         14         15
    11  O    0.000000
    12  O    6.054209   0.000000
    13  H    4.516627   4.731421   0.000000
    14  H    5.210292   2.340748   2.467000   0.000000
    15  H    2.642201   4.056860   4.926347   4.248067   0.000000
    16  H    4.621409   3.330391   5.888668   4.442136   2.206377
    17  H    5.435107   2.648522   5.387838   3.683637   3.417612
    18  H    5.066544   2.037688   5.293319   3.455594   2.709805
    19  H    6.988392   3.783887   7.595232   5.645949   4.531496
    20  H    6.670469   3.203579   7.315679   5.275493   4.042788
    21  H    7.223166   2.537032   6.943911   4.695302   4.768311
    22  H    2.203837   6.842272   3.560413   5.257711   4.452771
    23  H    0.959982   6.726480   4.462037   5.595126   3.571782
    24  H    6.148700   0.960061   4.412180   2.053294   4.374394
                   16         17         18         19         20
    16  H    0.000000
    17  H    1.757081   0.000000
    18  H    2.487223   3.041512   0.000000
    19  H    2.370433   2.370337   3.613544   0.000000
    20  H    2.386198   2.931078   2.461734   1.648986   0.000000
    21  H    2.931104   2.386157   2.989296   1.648956   1.649015
    22  H    6.241203   6.561807   6.370616   8.515730   8.256885
    23  H    5.506735   6.175943   5.883885   7.861137   7.577057
    24  H    4.068013   3.530070   2.304390   4.694407   3.928879
                   21         22         23         24
    21  H    0.000000
    22  H    8.486894   0.000000
    23  H    8.046629   1.451764   0.000000
    24  H    3.405832   6.748008   6.752389   0.000000
 Stoichiometry    C8H12NO3(1+)
 Framework group  C1[X(C8H12NO3)]
 Deg. of freedom    66
 Full point group                 C1      NOp   1
 Largest Abelian subgroup         C1      NOp   1
 Largest concise Abelian subgroup C1      NOp   1
                         Standard orientation:                         
 ---------------------------------------------------------------------
 Center     Atomic      Atomic             Coordinates (Angstroms)
 Number     Number       Type             X           Y           Z
 ---------------------------------------------------------------------
      1          6           0       -1.609133    1.547879    0.248940
      2          6           0       -0.237043    1.479789    0.057631
      3          6           0       -0.390885   -0.865966   -0.336150
      4          6           0        2.509710   -0.758037    0.557854
      5          6           0       -2.367040    0.401934    0.148274
      6          6           0       -1.758385   -0.813046   -0.150300
      7          6           0        0.377768    0.277977   -0.233894
      8          6           0        1.875267    0.196795   -0.448974
      9          7           0        3.943885   -0.912612    0.322389
     10          8           0       -3.712205    0.441677    0.332002
     11          8           0       -2.532997   -1.939771   -0.249729
     12          8           0        2.471746    1.466135   -0.325935
     13          1           0       -2.076472    2.494868    0.475172
     14          1           0        0.364100    2.373596    0.136066
     15          1           0        0.087138   -1.807280   -0.563675
     16          1           0        2.024022   -1.731493    0.490287
     17          1           0        2.346466   -0.381412    1.567618
     18          1           0        2.063292   -0.180899   -1.454038
     19          1           0        4.330835   -1.549127    1.004398
     20          1           0        4.095351   -1.281341   -0.605569
     21          1           0        4.397891   -0.014250    0.405470
     22          1           0       -4.076402   -0.440196    0.225742
     23          1           0       -3.451927   -1.711973   -0.090853
     24          1           0        2.074607    2.069515   -0.958336
 ---------------------------------------------------------------------
 Rotational constants (GHZ):           2.0650693           0.4928468           0.4130667
 Standard basis: 6-31G(d) (6D, 7F)
 There are   204 symmetry adapted cartesian basis functions of A   symmetry.
 There are   204 symmetry adapted basis functions of A   symmetry.
   204 basis functions,   384 primitive gaussians,   204 cartesian basis functions
    45 alpha electrons       45 beta electrons
       nuclear repulsion energy       719.2524333596 Hartrees.
 NAtoms=   24 NActive=   24 NUniq=   24 SFac= 1.00D+00 NAtFMM=   60 NAOKFM=F Big=F
 Integral buffers will be    131072 words long.
 Raffenetti 1 integral format.
 Two-electron integral symmetry is turned on.
 One-electron integrals computed using PRISM.
 NBasis=   204 RedAO= T EigKep=  3.49D-04  NBF=   204
 NBsUse=   204 1.00D-06 EigRej= -1.00D+00 NBFU=   204
 ExpMin= 1.61D-01 ExpMax= 5.48D+03 ExpMxC= 8.25D+02 IAcc=3 IRadAn=         5 AccDes= 0.00D+00
 Harris functional with IExCor=  205 and IRadAn=       5 diagonalized for initial guess.
 HarFok:  IExCor=  205 AccDes= 0.00D+00 IRadAn=         5 IDoV= 1 UseB2=F ITyADJ=14
 ICtDFT=  3500011 ScaDFX=  1.000000  1.000000  1.000000  1.000000
 FoFCou: FMM=F IPFlag=           0 FMFlag=      100000 FMFlg1=           0
         NFxFlg=           0 DoJE=T BraDBF=F KetDBF=T FulRan=T
         wScrn=  0.000000 ICntrl=       500 IOpCl=  0 I1Cent=   200000004 NGrid=           0
         NMat0=    1 NMatS0=      1 NMatT0=    0 NMatD0=    1 NMtDS0=    0 NMtDT0=    0
 Petite list used in FoFCou.
 Requested convergence on RMS density matrix=1.00D-08 within 128 cycles.
 Requested convergence on MAX density matrix=1.00D-06.
 Requested convergence on             energy=1.00D-06.
 No special actions if energy rises.
 Integral accuracy reduced to 1.0D-05 until final iterations.
 Initial convergence to 1.0D-05 achieved.  Increase integral accuracy.
 SCF Done:  E(RHF) =  -588.702254769     A.U. after   15 cycles
            NFock= 15  Conv=0.68D-08     -V/T= 2.0015
 SCF density gives NOpUse=  1 NOpAll=  1.

 **********************************************************************

            Population analysis using the SCF Density.

 **********************************************************************

 Orbital symmetries:
 BldTbl:  Degeneracy threshold= 1.00D-02
       Occupied  (A) (A) (A) (A) (A) (A) (A) (A) (A) (A) (A) (A)
                 (A) (A) (A) (A) (A) (A) (A) (A) (A) (A) (A) (A)
                 (A) (A) (A) (A) (A) (A) (A) (A) (A) (A) (A) (A)
                 (A) (A) (A) (A) (A) (A) (A) (A) (A)
       Virtual   (A) (A) (A) (A) (A) (A) (A) (A) (A) (A) (A) (A)
                 (A) (A) (A) (A) (A) (A) (A) (A) (A) (A) (A) (A)
                 (A) (A) (A) (A) (A) (A) (A) (A) (A) (A) (A) (A)
                 (A) (A) (A) (A) (A) (A) (A) (A) (A) (A) (A) (A)
                 (A) (A) (A) (A) (A) (A) (A) (A) (A) (A) (A) (A)
                 (A) (A) (A) (A) (A) (A) (A) (A) (A) (A) (A) (A)
                 (A) (A) (A) (A) (A) (A) (A) (A) (A) (A) (A) (A)
                 (A) (A) (A) (A) (A) (A) (A) (A) (A) (A) (A) (A)
                 (A) (A) (A) (A) (A) (A) (A) (A) (A) (A) (A) (A)
                 (A) (A) (A) (A) (A) (A) (A) (A) (A) (A) (A) (A)
                 (A) (A) (A) (A) (A) (A) (A) (A) (A) (A) (A) (A)
                 (A) (A) (A) (A) (A) (A) (A) (A) (A) (A) (A) (A)
                 (A) (A) (A) (A) (A) (A) (A) (A) (A) (A) (A) (A)
                 (A) (A) (A)
 The electronic state is 1-A.
 Alpha  occ. eigenvalues --  -20.72452 -20.71146 -20.70729 -15.89561 -11.46896
 Alpha  occ. eigenvalues --  -11.45920 -11.41579 -11.41120 -11.36443 -11.35710
 Alpha  occ. eigenvalues --  -11.35078 -11.34595  -1.54287  -1.54181  -1.51794
 Alpha  occ. eigenvalues --   -1.49930  -1.28151  -1.21275  -1.13743  -1.12969
 Alpha  occ. eigenvalues --   -1.04159  -0.98795  -0.98118  -0.96382  -0.93555
 Alpha  occ. eigenvalues --   -0.89703  -0.86855  -0.86788  -0.81249  -0.79819
 Alpha  occ. eigenvalues --   -0.78342  -0.74697  -0.74317  -0.72541  -0.72097
 Alpha  occ. eigenvalues --   -0.69104  -0.68584  -0.68057  -0.66677  -0.65154
 Alpha  occ. eigenvalues --   -0.62398  -0.60171  -0.58637  -0.44839  -0.42114
 Alpha virt. eigenvalues --   -0.01247   0.02032   0.03727   0.05736   0.07143
 Alpha virt. eigenvalues --    0.07218   0.08900   0.10648   0.14050   0.14762
 Alpha virt. eigenvalues --    0.16360   0.20178   0.21573   0.22453   0.23520
 Alpha virt. eigenvalues --    0.25249   0.27712   0.28924   0.29699   0.32232
 Alpha virt. eigenvalues --    0.36409   0.41039   0.43272   0.46210   0.49557
 Alpha virt. eigenvalues --    0.53342   0.56650   0.58532   0.59325   0.60196
 Alpha virt. eigenvalues --    0.61580   0.62785   0.63930   0.67723   0.70202
 Alpha virt. eigenvalues --    0.71612   0.72222   0.72539   0.75548   0.77321
 Alpha virt. eigenvalues --    0.77768   0.78315   0.79775   0.80873   0.82495
 Alpha virt. eigenvalues --    0.86811   0.89439   0.90249   0.90598   0.91172
 Alpha virt. eigenvalues --    0.91259   0.92257   0.95399   0.96638   0.98303
 Alpha virt. eigenvalues --    0.98795   0.99353   1.02203   1.03429   1.05623
 Alpha virt. eigenvalues --    1.06257   1.08573   1.09324   1.10496   1.11051
 Alpha virt. eigenvalues --    1.11831   1.14611   1.17929   1.18965   1.19480
 Alpha virt. eigenvalues --    1.21808   1.25847   1.27715   1.30917   1.34776
 Alpha virt. eigenvalues --    1.35537   1.37477   1.38883   1.41671   1.48037
 Alpha virt. eigenvalues --    1.48184   1.51316   1.52625   1.56839   1.57910
 Alpha virt. eigenvalues --    1.59975   1.61587   1.65538   1.66865   1.70779
 Alpha virt. eigenvalues --    1.74993   1.80444   1.86330   1.88244   1.89712
 Alpha virt. eigenvalues --    1.91201   1.92715   1.93736   1.95001   1.96874
 Alpha virt. eigenvalues --    1.99075   2.01185   2.06112   2.08639   2.09240
 Alpha virt. eigenvalues --    2.09664   2.10988   2.11750   2.14234   2.18437
 Alpha virt. eigenvalues --    2.21618   2.23439   2.26871   2.30812   2.32806
 Alpha virt. eigenvalues --    2.36555   2.39095   2.41893   2.45942   2.48731
 Alpha virt. eigenvalues --    2.49459   2.50839   2.52446   2.54996   2.57331
 Alpha virt. eigenvalues --    2.58040   2.61161   2.64417   2.66407   2.67554
 Alpha virt. eigenvalues --    2.69262   2.78273   2.81876   2.84405   2.86981
 Alpha virt. eigenvalues --    2.90063   2.91858   2.94050   2.99906   3.06637
 Alpha virt. eigenvalues --    3.09815   3.13617   3.18532   3.21812   3.29990
 Alpha virt. eigenvalues --    3.48773   3.74709   3.99144   4.12661   4.13197
 Alpha virt. eigenvalues --    4.41149   4.44067   4.49896   4.51541   4.61058
 Alpha virt. eigenvalues --    4.66409   4.76928   4.87700   5.24051
          Condensed to atoms (all electrons):
               1          2          3          4          5          6
     1  C    4.946872   0.524055  -0.032118  -0.000094   0.550901  -0.045980
     2  C    0.524055   4.935533  -0.043620  -0.002486  -0.042861  -0.027896
     3  C   -0.032118  -0.043620   5.047181  -0.005268  -0.055292   0.546613
     4  C   -0.000094  -0.002486  -0.005268   5.302949  -0.000002   0.000342
     5  C    0.550901  -0.042861  -0.055292  -0.000002   4.535990   0.525359
     6  C   -0.045980  -0.027896   0.546613   0.000342   0.525359   4.522646
     7  C   -0.046671   0.572881   0.497680  -0.055908  -0.023420  -0.035533
     8  C    0.002562  -0.033659  -0.050711   0.309346   0.000291   0.001364
     9  N    0.000000  -0.000010   0.000057   0.104464  -0.000000  -0.000001
    10  O   -0.041998   0.002337   0.004990   0.000000   0.259645  -0.057671
    11  O    0.004221   0.000097  -0.039221   0.000000  -0.056206   0.254788
    12  O    0.000657  -0.007737   0.002139  -0.054859  -0.000011  -0.000043
    13  H    0.372610  -0.025479   0.000170   0.000001  -0.021506   0.002257
    14  H   -0.019037   0.378000   0.002798  -0.000137   0.001696   0.000269
    15  H    0.000076   0.002225   0.372171  -0.002023   0.002864  -0.009342
    16  H   -0.000003   0.000284   0.001036   0.399237  -0.000008   0.000223
    17  H   -0.000001   0.000711   0.001702   0.384632  -0.000012  -0.000088
    18  H    0.000066   0.000089   0.002207  -0.065353   0.000017  -0.000142
    19  H   -0.000000  -0.000000   0.000001  -0.020390   0.000000  -0.000000
    20  H    0.000000  -0.000003   0.000049  -0.022219   0.000000  -0.000000
    21  H   -0.000000   0.000013  -0.000026  -0.019414   0.000000   0.000000
    22  H    0.005003  -0.000190   0.000726   0.000000  -0.032968  -0.001876
    23  H    0.000620  -0.000019   0.005139   0.000000  -0.002550  -0.031162
    24  H   -0.000095   0.003342   0.000053   0.006548  -0.000010  -0.000003
               7          8          9         10         11         12
     1  C   -0.046671   0.002562   0.000000  -0.041998   0.004221   0.000657
     2  C    0.572881  -0.033659  -0.000010   0.002337   0.000097  -0.007737
     3  C    0.497680  -0.050711   0.000057   0.004990  -0.039221   0.002139
     4  C   -0.055908   0.309346   0.104464   0.000000   0.000000  -0.054859
     5  C   -0.023420   0.000291  -0.000000   0.259645  -0.056206  -0.000011
     6  C   -0.035533   0.001364  -0.000001  -0.057671   0.254788  -0.000043
     7  C    4.952843   0.372312   0.003850  -0.000001   0.001661  -0.047968
     8  C    0.372312   4.719710  -0.051814   0.000000  -0.000037   0.217484
     9  N    0.003850  -0.051814   6.930946   0.000000  -0.000000   0.000007
    10  O   -0.000001   0.000000   0.000000   8.323343  -0.015272   0.000000
    11  O    0.001661  -0.000037  -0.000000  -0.015272   8.339332   0.000000
    12  O   -0.047968   0.217484   0.000007   0.000000   0.000000   8.419047
    13  H    0.002050  -0.000105  -0.000000  -0.000638  -0.000029   0.000001
    14  H   -0.036298  -0.006029  -0.000007  -0.000037   0.000001   0.008258
    15  H   -0.049407  -0.000497  -0.000034  -0.000038  -0.000428   0.000007
    16  H   -0.001507  -0.032679  -0.036369  -0.000000  -0.000005   0.001932
    17  H   -0.000972  -0.026498  -0.033486   0.000000   0.000000   0.001861
    18  H   -0.054333   0.415199  -0.001969  -0.000000  -0.000001  -0.038025
    19  H   -0.000046   0.003404   0.312415  -0.000000   0.000000  -0.000063
    20  H   -0.000150   0.000399   0.306460  -0.000000   0.000000  -0.000142
    21  H    0.000217  -0.005409   0.299789   0.000000  -0.000000   0.010229
    22  H   -0.000015  -0.000000  -0.000000   0.259243   0.007470  -0.000000
    23  H   -0.000131   0.000002   0.000000   0.007606   0.258732  -0.000000
    24  H   -0.000930  -0.017517  -0.000185   0.000000   0.000000   0.259069
              13         14         15         16         17         18
     1  C    0.372610  -0.019037   0.000076  -0.000003  -0.000001   0.000066
     2  C   -0.025479   0.378000   0.002225   0.000284   0.000711   0.000089
     3  C    0.000170   0.002798   0.372171   0.001036   0.001702   0.002207
     4  C    0.000001  -0.000137  -0.002023   0.399237   0.384632  -0.065353
     5  C   -0.021506   0.001696   0.002864  -0.000008  -0.000012   0.000017
     6  C    0.002257   0.000269  -0.009342   0.000223  -0.000088  -0.000142
     7  C    0.002050  -0.036298  -0.049407  -0.001507  -0.000972  -0.054333
     8  C   -0.000105  -0.006029  -0.000497  -0.032679  -0.026498   0.415199
     9  N   -0.000000  -0.000007  -0.000034  -0.036369  -0.033486  -0.001969
    10  O   -0.000638  -0.000037  -0.000038  -0.000000   0.000000  -0.000000
    11  O   -0.000029   0.000001  -0.000428  -0.000005   0.000000  -0.000001
    12  O    0.000001   0.008258   0.000007   0.001932   0.001861  -0.038025
    13  H    0.413756  -0.001381   0.000011  -0.000000   0.000001   0.000002
    14  H   -0.001381   0.447682  -0.000114   0.000001   0.000091   0.000416
    15  H    0.000011  -0.000114   0.467116   0.000779   0.000210   0.001196
    16  H   -0.000000   0.000001   0.000779   0.421420  -0.014541   0.001125
    17  H    0.000001   0.000091   0.000210  -0.014541   0.406509   0.004069
    18  H    0.000002   0.000416   0.001196   0.001125   0.004069   0.543924
    19  H    0.000000   0.000000   0.000007  -0.002355  -0.002410  -0.000234
    20  H    0.000000   0.000000   0.000019  -0.001778   0.002854   0.003994
    21  H   -0.000000   0.000001  -0.000005   0.002568  -0.001187   0.000437
    22  H   -0.000103   0.000003  -0.000014   0.000000  -0.000000  -0.000000
    23  H   -0.000011  -0.000000  -0.000129   0.000000  -0.000000  -0.000000
    24  H    0.000003  -0.000171   0.000002  -0.000127  -0.000180  -0.005039
              19         20         21         22         23         24
     1  C   -0.000000   0.000000  -0.000000   0.005003   0.000620  -0.000095
     2  C   -0.000000  -0.000003   0.000013  -0.000190  -0.000019   0.003342
     3  C    0.000001   0.000049  -0.000026   0.000726   0.005139   0.000053
     4  C   -0.020390  -0.022219  -0.019414   0.000000   0.000000   0.006548
     5  C    0.000000   0.000000   0.000000  -0.032968  -0.002550  -0.000010
     6  C   -0.000000  -0.000000   0.000000  -0.001876  -0.031162  -0.000003
     7  C   -0.000046  -0.000150   0.000217  -0.000015  -0.000131  -0.000930
     8  C    0.003404   0.000399  -0.005409  -0.000000   0.000002  -0.017517
     9  N    0.312415   0.306460   0.299789  -0.000000   0.000000  -0.000185
    10  O   -0.000000  -0.000000   0.000000   0.259243   0.007606   0.000000
    11  O    0.000000   0.000000  -0.000000   0.007470   0.258732   0.000000
    12  O   -0.000063  -0.000142   0.010229  -0.000000  -0.000000   0.259069
    13  H    0.000000   0.000000  -0.000000  -0.000103  -0.000011   0.000003
    14  H    0.000000   0.000000   0.000001   0.000003  -0.000000  -0.000171
    15  H    0.000007   0.000019  -0.000005  -0.000014  -0.000129   0.000002
    16  H   -0.002355  -0.001778   0.002568   0.000000   0.000000  -0.000127
    17  H   -0.002410   0.002854  -0.001187  -0.000000  -0.000000  -0.000180
    18  H   -0.000234   0.003994   0.000437  -0.000000  -0.000000  -0.005039
    19  H    0.254180  -0.009379  -0.008798   0.000000  -0.000000   0.000009
    20  H   -0.009379   0.263296  -0.007944  -0.000000  -0.000000  -0.000028
    21  H   -0.008798  -0.007944   0.243994   0.000000   0.000000  -0.000314
    22  H    0.000000  -0.000000   0.000000   0.293456   0.021734   0.000000
    23  H   -0.000000  -0.000000   0.000000   0.021734   0.289382  -0.000000
    24  H    0.000009  -0.000028  -0.000314   0.000000  -0.000000   0.274560
 Mulliken charges:
               1
     1  C   -0.221647
     2  C   -0.235604
     3  C   -0.258457
     4  C   -0.259367
     5  C    0.358082
     6  C    0.355877
     7  C   -0.050201
     8  C    0.182884
     9  N   -0.834113
    10  O   -0.741509
    11  O   -0.755104
    12  O   -0.771841
    13  H    0.258391
    14  H    0.223995
    15  H    0.215348
    16  H    0.260767
    17  H    0.276735
    18  H    0.192355
    19  H    0.473659
    20  H    0.464573
    21  H    0.485848
    22  H    0.447532
    23  H    0.450787
    24  H    0.481012
 Sum of Mulliken charges =   1.00000
 Mulliken charges with hydrogens summed into heavy atoms:
               1
     1  C    0.036744
     2  C   -0.011609
     3  C   -0.043109
     4  C    0.278134
     5  C    0.358082
     6  C    0.355877
     7  C   -0.050201
     8  C    0.375239
     9  N    0.589967
    10  O   -0.293977
    11  O   -0.304317
    12  O   -0.290829
 DipInt: DoE/N= T F RetVal/Mat= T F Init=T NMatP=  1 IDeriv=0 Min/MaxMlt=  0  4
 Entering OneElI...
 OneElI was handed  2147374284 working-precision words.
 Multipole integrals L=0 to 4 MinM= 0 MaxM= 0.
 Requested accuracy = 0.1000D-12
 ShPair: Thresh= 1.00D-13 NBox=     0 BxSize= 0.00D+00 RnKept= 1.61D+01
         NSMCal=                 2628 NSMKep=                2316
 PrmmSu-InSpLW:  IPartL=    0 NPrtUS=    1 NPrtUL=    1 DoSpLW=F IThBeg=    0 IThEnd=    0 NThAct=    1.
 PrSmSu:  IncTry=   512 NBBP=           2316 NTPThr=   100 NPartT=    1 Incr=          23 LDynOK=F GPUOK=F.
 PrsmSu:  NPrtUS=   1 ThrOK=F IAlg=2 LenDen=           0 ISkipM=0 DoSpLW=F IThBeg=    0 IThEnd=    0.
 Prism:   IPart=     0 DynPar=F LinDyn=F Incr=          23.
 PRISM was handed  2147169967 working-precision words and  2316 shell-pairs
 IPart=  0 NShTot=        2316 NBatch=          44 AvBLen=        52.6
 PrsmSu-ThDecC:  IPartSL=    0    0 NPrtUSL=    1    1 IThBeg=    0 IThEnd=    0 CPU=   -1 GPU=   -1 NThAct=    1.
 PrSmSu:  NxtVal=             24.
 Electronic moments (au):
        -90.00000000          5.22135254         -1.51871372          0.17886333
      -1974.76458683       -492.33216416       -105.51557574         -9.17975021
          2.29795434         -3.09258681       -810.31490459        -53.44172392
         -5.95755711        267.54318366        857.62547837       -522.23991092
       -131.43038077         15.41392587         39.68659186        383.62945644
     -78713.75903884      -5958.58698691       -508.90400044       4704.08341274
       -722.03584782      -1642.02997015       -195.38967968        -54.09356129
         26.68821593      -9420.61517780      -2349.82438951       -531.60306376
        486.99228999       -117.77159177        138.05827792
 Electronic spatial extent (au):  <R**2>=           2572.6123
 DipInt: DoE/N= F T RetVal/Mat= T F Init=T NMatP=  1 IDeriv=0 Min/MaxMlt=  0  4
 Nuclear    moments (au):
         91.00000000          0.00000000          0.00000000          0.00000000
       1978.55727177        448.28244382         55.67950872          0.00000000
          0.00000000          0.00000000       1108.00581966         70.18134509
          8.28501170       -226.53200600      -1006.78065349        551.46306072
        165.57752970        -20.21468870        -40.62673899       -395.30586862
      76091.55036065       4493.59072941        178.36977334      -4982.94640822
       1012.46686499       1516.40773604        143.66887748         70.96259905
        -56.51250565       8407.55597819       1374.61690329        227.84220985
       -596.96781249         84.30035699       -151.67884721
 Total      moments (au):
          1.00000000          5.22135254         -1.51871372          0.17886333
          3.79268494        -44.04972034        -49.83606702         -9.17975021
          2.29795434         -3.09258681        297.69091508         16.73962116
          2.32745459         41.01117766       -149.15517511         29.22314980
         34.14714893         -4.80076283         -0.94014713        -11.67641218
      -2622.20867819      -1464.99625750       -330.53422710       -278.86299548
        290.43101717       -125.62223411        -51.72080220         16.86903776
        -29.82428972      -1013.05919961       -975.20748622       -303.76085391
       -109.97552249        -33.47123478        -13.62056929
 Traceless Quadrup. (au):
         33.82371908        -14.01868620        -19.80503288         -9.17975021
          2.29795434         -3.09258681
 Charge=              1.0000 electrons
 Dipole moment (field-independent basis, Debye):
    X=             13.2714    Y=             -3.8602    Z=              0.4546  Tot=             13.8288
 Quadrupole moment (field-independent basis, Debye-Ang):
   XX=              5.1013   YY=            -59.2484   ZZ=            -67.0312
   XY=            -12.3471   XZ=              3.0908   YZ=             -4.1596
 Traceless Quadrupole moment (field-independent basis, Debye-Ang):
   XX=             45.4941   YY=            -18.8556   ZZ=            -26.6384
   XY=            -12.3471   XZ=              3.0908   YZ=             -4.1596
 Octapole moment (field-independent basis, Debye-Ang**2):
  XXX=            211.8849  YYY=             11.9146  ZZZ=              1.6566  XYY=             29.1902
  XXY=           -106.1629  XXZ=             20.7999  XZZ=             24.3046  YZZ=             -3.4170
  YYZ=             -0.6692  XYZ=             -8.3108
 Hexadecapole moment (field-independent basis, Debye-Ang**3):
 XXXX=           -987.6495 YYYY=           -551.7878 ZZZZ=           -124.4950 XXXY=           -105.0332
 XXXZ=            109.3902 YYYX=            -47.3154 YYYZ=            -19.4805 ZZZX=              6.3537
 ZZZY=            -11.2333 XXYY=           -381.5667 XXZZ=           -367.3099 YYZZ=           -114.4109
 XXYZ=            -41.4221 YYXZ=            -12.6069 ZZXY=             -5.1302
 N-N= 7.192524333596D+02 E-N=-2.805706360759D+03  KE= 5.878111479761D+02
 Entering OneElI...
 OneElI was handed  2147394366 working-precision words.
 Calculate electrostatic properties
    NBasis =   204  MinDer = 0  MaxDer = 0
    NGrid  =    24  NMatD  =   1
 Requested accuracy = 0.1000D-12
 PrtBox:  NBox=     1 Levels=  1 BoxLen=   29.89 SMaxX=       16.01
          Shift=            7.703284            3.665636            2.747733
 Box      1 Number                   0 centers from      1 to     72:
 ShPair: Thresh= 1.00D-13 NBox=     1 BxSize= 2.99D+01 RnKept= 1.61D+01
         NSMCal=                 2628 NSMKep=                2150
 PrmmSu-InSpLW:  IPartL=    0 NPrtUS=   16 NPrtUL=    1 DoSpLW=F IThBeg=    0 IThEnd=   15 NThAct=   16.
 PrSmSu:  IncTry=   512 NBBP=          51600 NTPThr=   100 NPartT=   16 Incr=          32 LDynOK=F GPUOK=F.
 PrsmSu:  NPrtUS=  16 ThrOK=T IAlg=2 LenDen=           0 ISkipM=0 DoSpLW=F IThBeg=    0 IThEnd=   15.
 Prism:   IPart=     0 DynPar=F LinDyn=F Incr=          32.
 PRISM was handed   134135978 working-precision words and  2150 shell-pairs
 PRISM was handed   134135978 working-precision words and  2150 shell-pairs
 PRISM was handed   134135978 working-precision words and  2150 shell-pairs
 PRISM was handed   134135978 working-precision words and  2150 shell-pairs
 PRISM was handed   134135978 working-precision words and  2150 shell-pairs
 PRISM was handed   134135978 working-precision words and  2150 shell-pairs
 PRISM was handed   134135978 working-precision words and  2150 shell-pairs
 PRISM was handed   134135978 working-precision words and  2150 shell-pairs
 PRISM was handed   134135978 working-precision words and  2150 shell-pairs
 PRISM was handed   134135978 working-precision words and  2150 shell-pairs
 PRISM was handed   134135978 working-precision words and  2150 shell-pairs
 PRISM was handed   134135978 working-precision words and  2150 shell-pairs
 PRISM was handed   134135978 working-precision words and  2150 shell-pairs
 PRISM was handed   134135978 working-precision words and  2150 shell-pairs
 PRISM was handed   134135978 working-precision words and  2150 shell-pairs
 PRISM was handed   134135978 working-precision words and  2150 shell-pairs
 IPart=  0 NShTot=        3744 NBatch=         156 AvBLen=        24.0
 PrsmSu-ThDecC:  IPartSL=    0    0 NPrtUSL=   16    1 IThBeg=    0 IThEnd=   15 CPU=   -1 GPU=   -1 NThAct=   16.
 IPart= 12 NShTot=        2904 NBatch=         121 AvBLen=        24.0
 PrsmSu-ThDecC:  IPartSL=   12    0 NPrtUSL=   16    1 IThBeg=    0 IThEnd=   15 CPU=   -1 GPU=   -1 NThAct=   15.
 IPart=  8 NShTot=        3168 NBatch=         132 AvBLen=        24.0
 PrsmSu-ThDecC:  IPartSL=    8    0 NPrtUSL=   16    1 IThBeg=    0 IThEnd=   15 CPU=   -1 GPU=   -1 NThAct=   14.
 IPart=  4 NShTot=        3432 NBatch=         143 AvBLen=        24.0
 IPart= 14 NShTot=        2832 NBatch=         118 AvBLen=        24.0
 PrsmSu-ThDecC:  IPartSL=    4    0 NPrtUSL=   16    1 IThBeg=    0 IThEnd=   15 CPU=   -1 GPU=   -1 NThAct=   13.
 PrsmSu-ThDecC:  IPartSL=   14    0 NPrtUSL=   16    1 IThBeg=    0 IThEnd=   15 CPU=   -1 GPU=   -1 NThAct=   12.
 IPart= 15 NShTot=        2808 NBatch=         117 AvBLen=        24.0
 IPart=  2 NShTot=        3552 NBatch=         148 AvBLen=        24.0
 PrsmSu-ThDecC:  IPartSL=   15    0 NPrtUSL=   16    1 IThBeg=    0 IThEnd=   15 CPU=   -1 GPU=   -1 NThAct=   11.
 PrsmSu-ThDecC:  IPartSL=    2    0 NPrtUSL=   16    1 IThBeg=    0 IThEnd=   15 CPU=   -1 GPU=   -1 NThAct=   10.
 IPart=  3 NShTot=        3480 NBatch=         145 AvBLen=        24.0
 PrsmSu-ThDecC:  IPartSL=    3    0 NPrtUSL=   16    1 IThBeg=    0 IThEnd=   15 CPU=   -1 GPU=   -1 NThAct=    9.
 IPart=  7 NShTot=        3216 NBatch=         134 AvBLen=        24.0
 PrsmSu-ThDecC:  IPartSL=    7    0 NPrtUSL=   16    1 IThBeg=    0 IThEnd=   15 CPU=   -1 GPU=   -1 NThAct=    8.
 IPart= 10 NShTot=        3072 NBatch=         128 AvBLen=        24.0
 PrsmSu-ThDecC:  IPartSL=   10    0 NPrtUSL=   16    1 IThBeg=    0 IThEnd=   15 CPU=   -1 GPU=   -1 NThAct=    7.
 IPart= 11 NShTot=        3024 NBatch=         126 AvBLen=        24.0
 PrsmSu-ThDecC:  IPartSL=   11    0 NPrtUSL=   16    1 IThBeg=    0 IThEnd=   15 CPU=   -1 GPU=   -1 NThAct=    6.
 IPart= 13 NShTot=        2880 NBatch=         120 AvBLen=        24.0
 PrsmSu-ThDecC:  IPartSL=   13    0 NPrtUSL=   16    1 IThBeg=    0 IThEnd=   15 CPU=   -1 GPU=   -1 NThAct=    5.
 IPart=  1 NShTot=        3720 NBatch=         155 AvBLen=        24.0
 PrsmSu-ThDecC:  IPartSL=    1    0 NPrtUSL=   16    1 IThBeg=    0 IThEnd=   15 CPU=   -1 GPU=   -1 NThAct=    4.
 IPart=  5 NShTot=        3360 NBatch=         140 AvBLen=        24.0
 PrsmSu-ThDecC:  IPartSL=    5    0 NPrtUSL=   16    1 IThBeg=    0 IThEnd=   15 CPU=   -1 GPU=   -1 NThAct=    3.
 IPart=  6 NShTot=        3264 NBatch=         136 AvBLen=        24.0
 PrsmSu-ThDecC:  IPartSL=    6    0 NPrtUSL=   16    1 IThBeg=    0 IThEnd=   15 CPU=   -1 GPU=   -1 NThAct=    2.
 IPart=  9 NShTot=        3144 NBatch=         131 AvBLen=        24.0
 PrsmSu-ThDecC:  IPartSL=    9    0 NPrtUSL=   16    1 IThBeg=    0 IThEnd=   15 CPU=   -1 GPU=   -1 NThAct=    1.
 PrSmSu:  NxtVal=            513.
 --------------------------------------------------------
       Center         ----      EFG at Nuclei      ----
                      3XX-RR        3YY-RR        3ZZ-RR
 --------------------------------------------------------
     1   Atom        0.153970      0.116242     -0.270212
     2   Atom        0.158371      0.123903     -0.282274
     3   Atom        0.100202      0.108100     -0.208302
     4   Atom       -0.445151      0.229183      0.215969
     5   Atom       -0.161928      0.336780     -0.174852
     6   Atom        0.185668     -0.044449     -0.141219
     7   Atom        0.005382      0.187426     -0.192809
     8   Atom        0.124573     -0.266781      0.142208
     9   Atom        0.048444      0.001421     -0.049864
    10   Atom       -1.233448     -0.443309      1.676756
    11   Atom       -1.496640     -0.199377      1.696017
    12   Atom        0.848784     -1.512188      0.663404
    13   Atom        0.060635     -0.208797      0.148162
    14   Atom        0.003433     -0.169098      0.165665
    15   Atom        0.047393     -0.202760      0.155368
    16   Atom        0.047836     -0.202265      0.154429
    17   Atom        0.117828      0.105343     -0.223171
    18   Atom        0.135001      0.083522     -0.218523
    19   Atom        0.101917     -0.035406     -0.066512
    20   Atom        0.171469      0.113121     -0.284590
    21   Atom        0.066416     -0.245340      0.178925
    22   Atom        0.115693     -0.390534      0.274841
    23   Atom       -0.414673      0.150473      0.264200
    24   Atom        0.116845     -0.056997     -0.059848
 --------------------------------------------------------
                        XY            XZ            YZ
 --------------------------------------------------------
     1   Atom       -0.010377     -0.061358      0.073002
     2   Atom        0.001670     -0.053689      0.073054
     3   Atom        0.048725     -0.037745      0.049859
     4   Atom        0.067019      0.110915     -0.005629
     5   Atom        0.061135      0.006870      0.084857
     6   Atom       -0.227841     -0.087400      0.050085
     7   Atom        0.013846     -0.020414      0.072779
     8   Atom       -0.138184     -0.068250      0.023465
     9   Atom        0.015719     -0.010813      0.005815
    10   Atom       -0.846842      0.244748     -0.273285
    11   Atom       -0.664958      0.305174     -0.263818
    12   Atom       -0.423857     -0.886734      0.827069
    13   Atom        0.173141      0.044554     -0.088546
    14   Atom       -0.213800     -0.006927     -0.031672
    15   Atom        0.182510      0.044714     -0.089810
    16   Atom       -0.159672     -0.013696     -0.027700
    17   Atom        0.023552      0.050592     -0.140447
    18   Atom        0.029859      0.072033     -0.139484
    19   Atom        0.137475     -0.145562      0.237875
    20   Atom        0.032377      0.078584     -0.188926
    21   Atom       -0.226912     -0.019824     -0.042231
    22   Atom       -0.224356     -0.016326     -0.089570
    23   Atom        0.171962      0.121433     -0.046949
    24   Atom        0.164965     -0.209632      0.289429
 --------------------------------------------------------


 ---------------------------------------------------------------------------------
              Nuclear Quadrupole Coupling Constant in Principal Axis System
 ---------------------------------------------------------------------------------

       Atom             a.u.   MegaHertz   Gauss  10(-4) cm-1        Axes

              Baa    -0.0521     0.250     0.089     0.084  0.1280 -0.1441  0.9812
     9 N(14)  Bbb    -0.0018     0.009     0.003     0.003 -0.2598  0.9500  0.1734
              Bcc     0.0539    -0.259    -0.092    -0.086  0.9571  0.2771 -0.0842
 

 ---------------------------------------------------------------------------------

 No NMR shielding tensors so no spin-rotation constants.
 Leave Link  601 at Tue Jun 13 11:07:53 2023, MaxMem=  2147483648 cpu:               2.8 elap:               0.2
 FitSet:  NAtFit=    24 NAtPot=    24 NAtFrz=     0 MDM=    28 TotChg=   1.00000
 Merz-Kollman atomic radii used.
 Atom Element Radius
    1     6    1.50
    2     6    1.50
    3     6    1.50
    4     6    1.50
    5     6    1.50
    6     6    1.50
    7     6    1.50
    8     6    1.50
    9     7    1.50
   10     8    1.40
   11     8    1.40
   12     8    1.40
   13     1    1.20
   14     1    1.20
   15     1    1.20
   16     1    1.20
   17     1    1.20
   18     1    1.20
   19     1    1.20
   20     1    1.20
   21     1    1.20
   22     1    1.20
   23     1    1.20
   24     1    1.20
 Generate VDW surfaces: Layer= 4 Dens= 1 Start= 1.400 Inc= 0.200

 **********************************************************************

            Electrostatic Properties Using The SCF Density.

 **********************************************************************

       Atomic Center    1 is at  -1.609133  1.547879  0.248940
       Atomic Center    2 is at  -0.237043  1.479789  0.057631
       Atomic Center    3 is at  -0.390885 -0.865966 -0.336150
       Atomic Center    4 is at   2.509710 -0.758037  0.557854
       Atomic Center    5 is at  -2.367040  0.401934  0.148274
       Atomic Center    6 is at  -1.758385 -0.813046 -0.150300
       Atomic Center    7 is at   0.377768  0.277977 -0.233894
       Atomic Center    8 is at   1.875267  0.196795 -0.448974
       Atomic Center    9 is at   3.943885 -0.912612  0.322389
       Atomic Center   10 is at  -3.712205  0.441677  0.332002
       Atomic Center   11 is at  -2.532997 -1.939771 -0.249729
       Atomic Center   12 is at   2.471746  1.466135 -0.325935
       Atomic Center   13 is at  -2.076472  2.494868  0.475172
       Atomic Center   14 is at   0.364100  2.373596  0.136066
       Atomic Center   15 is at   0.087138 -1.807280 -0.563675
       Atomic Center   16 is at   2.024022 -1.731493  0.490287
       Atomic Center   17 is at   2.346466 -0.381412  1.567618
       Atomic Center   18 is at   2.063292 -0.180899 -1.454038
       Atomic Center   19 is at   4.330835 -1.549127  1.004398
       Atomic Center   20 is at   4.095351 -1.281341 -0.605569
       Atomic Center   21 is at   4.397891 -0.014250  0.405470
       Atomic Center   22 is at  -4.076402 -0.440196  0.225742
       Atomic Center   23 is at  -3.451927 -1.711973 -0.090853
       Atomic Center   24 is at   2.074607  2.069515 -0.958336
      ESP Fit Center   25 is at  -1.609133  1.547879  2.348940
      ESP Fit Center   26 is at  -1.084133  2.457206  2.067593
      ESP Fit Center   27 is at  -2.659133  1.547879  2.067593
      ESP Fit Center   28 is at  -1.084133  0.638552  2.067593
      ESP Fit Center   29 is at  -3.354118  2.060253 -0.801060
      ESP Fit Center   30 is at  -2.134133  2.457206 -1.569713
      ESP Fit Center   31 is at  -1.609133  1.547879 -1.851060
      ESP Fit Center   32 is at  -0.237043  1.479789  2.157631
      ESP Fit Center   33 is at   0.812957  1.479789  1.876285
      ESP Fit Center   34 is at   0.287957  2.389116  1.876285
      ESP Fit Center   35 is at   0.287957  0.570462  1.876285
      ESP Fit Center   36 is at  -0.495864  3.279931 -0.992369
      ESP Fit Center   37 is at   0.287957  2.389116 -1.761022
      ESP Fit Center   38 is at  -0.762043  2.389116 -1.761022
      ESP Fit Center   39 is at  -0.237043  1.479789 -2.042369
      ESP Fit Center   40 is at  -0.390885 -0.865966  1.763850
      ESP Fit Center   41 is at   0.134115 -1.775293  1.482504
      ESP Fit Center   42 is at  -0.649706 -2.666108  0.713850
      ESP Fit Center   43 is at   0.659115 -0.865966 -2.154803
      ESP Fit Center   44 is at  -0.915885  0.043361 -2.154803
      ESP Fit Center   45 is at  -0.915885 -1.775293 -2.154803
      ESP Fit Center   46 is at  -0.390885 -0.865966 -2.436150
      ESP Fit Center   47 is at   0.764725 -1.270411  1.607854
      ESP Fit Center   48 is at  -2.367040  0.401934  2.248274
      ESP Fit Center   49 is at  -2.892040  1.311261  1.966927
      ESP Fit Center   50 is at  -2.892040 -0.507392  1.966927
      ESP Fit Center   51 is at  -1.842040 -0.507392  1.966927
      ESP Fit Center   52 is at  -2.892040  1.311261 -1.670379
      ESP Fit Center   53 is at  -3.417040  0.401934 -1.670379
      ESP Fit Center   54 is at  -2.367040  0.401934 -1.951726
      ESP Fit Center   55 is at  -1.758385 -0.813046  1.949700
      ESP Fit Center   56 is at  -1.233385 -1.722373  1.668354
      ESP Fit Center   57 is at  -1.002889 -2.467352  0.899700
      ESP Fit Center   58 is at  -2.283385  0.096280 -1.968953
      ESP Fit Center   59 is at  -2.808385 -0.813046 -1.968953
      ESP Fit Center   60 is at  -1.758385 -0.813046 -2.250300
      ESP Fit Center   61 is at   0.377768  0.277977  1.866106
      ESP Fit Center   62 is at   0.902768  1.187304 -2.052547
      ESP Fit Center   63 is at  -0.147232  1.187304 -2.052547
      ESP Fit Center   64 is at   0.377768  0.277977 -2.333894
      ESP Fit Center   65 is at   1.350267  1.106122 -2.267628
      ESP Fit Center   66 is at   4.468885 -0.003285  2.141042
      ESP Fit Center   67 is at   6.043885 -0.912612  0.322389
      ESP Fit Center   68 is at   5.762538 -0.912612 -0.727611
      ESP Fit Center   69 is at  -3.712205  0.441677  2.292002
      ESP Fit Center   70 is at  -3.222205  1.290382  2.029412
      ESP Fit Center   71 is at  -4.202205  1.290382  2.029412
      ESP Fit Center   72 is at  -4.692205  0.441677  2.029412
      ESP Fit Center   73 is at  -4.202205 -0.407028  2.029412
      ESP Fit Center   74 is at  -3.222205 -0.407028  2.029412
      ESP Fit Center   75 is at  -4.236733  2.056009  1.312002
      ESP Fit Center   76 is at  -5.085438  1.439389  1.312002
      ESP Fit Center   77 is at  -5.409615  0.441677  1.312002
      ESP Fit Center   78 is at  -4.692205  2.139086  0.332002
      ESP Fit Center   79 is at  -5.409615  1.421677  0.332002
      ESP Fit Center   80 is at  -5.672205  0.441677  0.332002
      ESP Fit Center   81 is at  -4.236733  2.056009 -0.647998
      ESP Fit Center   82 is at  -5.085438  1.439389 -0.647998
      ESP Fit Center   83 is at  -5.409615  0.441677 -0.647998
      ESP Fit Center   84 is at  -4.202205  1.290382 -1.365408
      ESP Fit Center   85 is at  -4.692205  0.441677 -1.365408
      ESP Fit Center   86 is at  -3.712205  0.441677 -1.627998
      ESP Fit Center   87 is at  -2.532997 -1.939771  1.710271
      ESP Fit Center   88 is at  -3.022997 -2.788476  1.447681
      ESP Fit Center   89 is at  -2.042997 -2.788476  1.447681
      ESP Fit Center   90 is at  -3.057525 -3.554104  0.730271
      ESP Fit Center   91 is at  -2.008468 -3.554104  0.730271
      ESP Fit Center   92 is at  -1.159764 -2.937483  0.730271
      ESP Fit Center   93 is at  -3.512997 -3.637181 -0.249729
      ESP Fit Center   94 is at  -2.532997 -3.899771 -0.249729
      ESP Fit Center   95 is at  -1.552997 -3.637181 -0.249729
      ESP Fit Center   96 is at  -3.906230 -2.937483 -1.229729
      ESP Fit Center   97 is at  -3.057525 -3.554104 -1.229729
      ESP Fit Center   98 is at  -2.008468 -3.554104 -1.229729
      ESP Fit Center   99 is at  -1.159764 -2.937483 -1.229729
      ESP Fit Center  100 is at  -1.552997 -1.939771 -1.947138
      ESP Fit Center  101 is at  -3.022997 -1.091066 -1.947138
      ESP Fit Center  102 is at  -3.512997 -1.939771 -1.947138
      ESP Fit Center  103 is at  -3.022997 -2.788476 -1.947138
      ESP Fit Center  104 is at  -2.042997 -2.788476 -1.947138
      ESP Fit Center  105 is at  -2.532997 -1.939771 -2.209729
      ESP Fit Center  106 is at   2.471746  1.466135  1.634065
      ESP Fit Center  107 is at   3.451746  1.466135  1.371474
      ESP Fit Center  108 is at   2.961746  2.314840  1.371474
      ESP Fit Center  109 is at   1.981746  2.314840  1.371474
      ESP Fit Center  110 is at   1.491746  1.466135  1.371474
      ESP Fit Center  111 is at   3.844979  2.463848  0.654065
      ESP Fit Center  112 is at   2.996274  3.080468  0.654065
      ESP Fit Center  113 is at   1.947217  3.080468  0.654065
      ESP Fit Center  114 is at   4.169155  2.446135 -0.325935
      ESP Fit Center  115 is at   3.451746  3.163545 -0.325935
      ESP Fit Center  116 is at   4.169155  1.466135 -1.305935
      ESP Fit Center  117 is at   3.844979  2.463848 -1.305935
      ESP Fit Center  118 is at   3.844979  0.468423 -1.305935
      ESP Fit Center  119 is at   3.451746  1.466135 -2.023345
      ESP Fit Center  120 is at  -2.076472  2.494868  2.155172
      ESP Fit Center  121 is at  -1.771324  3.434017  1.834321
      ESP Fit Center  122 is at  -2.875359  3.075294  1.834321
      ESP Fit Center  123 is at  -0.852505  3.521898  0.994321
      ESP Fit Center  124 is at  -1.799021  4.068370  0.994321
      ESP Fit Center  125 is at  -2.875359  3.878582  0.994321
      ESP Fit Center  126 is at  -3.577889  3.041340  0.994321
      ESP Fit Center  127 is at  -0.852505  3.521898 -0.043976
      ESP Fit Center  128 is at  -1.799021  4.068370 -0.043976
      ESP Fit Center  129 is at  -2.875359  3.878582 -0.043976
      ESP Fit Center  130 is at  -3.577889  3.041340 -0.043976
      ESP Fit Center  131 is at  -1.771324  3.434017 -0.883976
      ESP Fit Center  132 is at  -2.875359  3.075294 -0.883976
      ESP Fit Center  133 is at   1.351579  2.373596  1.495215
      ESP Fit Center  134 is at   0.669248  3.312745  1.495215
      ESP Fit Center  135 is at   1.588067  3.400626  0.655215
      ESP Fit Center  136 is at   0.641551  3.947097  0.655215
      ESP Fit Center  137 is at  -0.434787  3.757310  0.655215
      ESP Fit Center  138 is at   0.641551  3.947097 -0.383082
      ESP Fit Center  139 is at  -0.434787  3.757310 -0.383082
      ESP Fit Center  140 is at   0.669248  3.312745 -1.223082
      ESP Fit Center  141 is at   0.392286 -2.746428  0.795473
      ESP Fit Center  142 is at  -0.711749 -3.190994 -0.044527
      ESP Fit Center  143 is at   0.364589 -3.380781 -0.044527
      ESP Fit Center  144 is at  -0.711749 -3.190994 -1.082824
      ESP Fit Center  145 is at   0.364589 -3.380781 -1.082824
      ESP Fit Center  146 is at   1.311105 -2.834310 -1.082824
      ESP Fit Center  147 is at   1.074618 -1.807280 -1.922824
      ESP Fit Center  148 is at  -0.711749 -2.387706 -1.922824
      ESP Fit Center  149 is at   0.392286 -2.746428 -1.922824
      ESP Fit Center  150 is at   0.087138 -1.807280 -2.243675
      ESP Fit Center  151 is at   1.225135 -2.311919  1.849435
      ESP Fit Center  152 is at   2.329170 -2.670642  1.849435
      ESP Fit Center  153 is at   0.522605 -2.277965  1.009435
      ESP Fit Center  154 is at   1.225135 -3.115207  1.009435
      ESP Fit Center  155 is at   2.301473 -3.304995  1.009435
      ESP Fit Center  156 is at   1.225135 -3.115207 -0.028862
      ESP Fit Center  157 is at   2.301473 -3.304995 -0.028862
      ESP Fit Center  158 is at   2.329170 -2.670642 -0.868862
      ESP Fit Center  159 is at   2.346466 -0.381412  3.247618
      ESP Fit Center  160 is at   3.333945 -0.381412  2.926767
      ESP Fit Center  161 is at   2.651613  0.557737  2.926767
      ESP Fit Center  162 is at   1.547578  0.199014  2.926767
      ESP Fit Center  163 is at   1.547578 -0.961838  2.926767
      ESP Fit Center  164 is at   2.651613 -1.320560  2.926767
      ESP Fit Center  165 is at   3.570432  0.645618  2.086767
      ESP Fit Center  166 is at   2.623916  1.192089  2.086767
      ESP Fit Center  167 is at   1.547578  1.002302  2.086767
      ESP Fit Center  168 is at   0.845048  0.165059  2.086767
      ESP Fit Center  169 is at   0.845048 -0.927883  2.086767
      ESP Fit Center  170 is at   3.661067 -0.180899 -1.973186
      ESP Fit Center  171 is at   1.264405 -1.564613 -1.973186
      ESP Fit Center  172 is at   2.340743 -1.754400 -1.973186
      ESP Fit Center  173 is at   3.050772 -0.180899 -2.813186
      ESP Fit Center  174 is at   2.368440  0.758249 -2.813186
      ESP Fit Center  175 is at   1.264405  0.399526 -2.813186
      ESP Fit Center  176 is at   1.264405 -0.761325 -2.813186
      ESP Fit Center  177 is at   2.368440 -1.120048 -2.813186
      ESP Fit Center  178 is at   2.063292 -0.180899 -3.134038
      ESP Fit Center  179 is at   4.330835 -1.549127  2.684398
      ESP Fit Center  180 is at   5.318314 -1.549127  2.363547
      ESP Fit Center  181 is at   4.635983 -0.609978  2.363547
      ESP Fit Center  182 is at   3.531947 -2.129552  2.363547
      ESP Fit Center  183 is at   4.635983 -2.488275  2.363547
      ESP Fit Center  184 is at   5.928610 -1.549127  1.523547
      ESP Fit Center  185 is at   3.531947 -2.932840  1.523547
      ESP Fit Center  186 is at   4.608285 -3.122628  1.523547
      ESP Fit Center  187 is at   5.554801 -2.576157  1.523547
      ESP Fit Center  188 is at   4.608285 -3.122628  0.485249
      ESP Fit Center  189 is at   5.554801 -2.576157  0.485249
      ESP Fit Center  190 is at   5.693126 -1.281341 -1.124718
      ESP Fit Center  191 is at   5.319318 -0.254312 -1.124718
      ESP Fit Center  192 is at   3.296464 -2.665055 -1.124718
      ESP Fit Center  193 is at   4.372802 -2.854843 -1.124718
      ESP Fit Center  194 is at   5.319318 -2.308371 -1.124718
      ESP Fit Center  195 is at   5.082831 -1.281341 -1.964718
      ESP Fit Center  196 is at   4.400499 -0.342193 -1.964718
      ESP Fit Center  197 is at   3.296464 -1.861767 -1.964718
      ESP Fit Center  198 is at   4.400499 -2.220490 -1.964718
      ESP Fit Center  199 is at   4.095351 -1.281341 -2.285569
      ESP Fit Center  200 is at   5.385370 -0.014250  1.764618
      ESP Fit Center  201 is at   4.703039  0.924898  1.764618
      ESP Fit Center  202 is at   5.995666 -0.014250  0.924618
      ESP Fit Center  203 is at   5.621858  1.012780  0.924618
      ESP Fit Center  204 is at   4.675342  1.559251  0.924618
      ESP Fit Center  205 is at   5.995666 -0.014250 -0.113679
      ESP Fit Center  206 is at   5.621858  1.012780 -0.113679
      ESP Fit Center  207 is at   4.675342  1.559251 -0.113679
      ESP Fit Center  208 is at   5.385370 -0.014250 -0.953679
      ESP Fit Center  209 is at   4.703039  0.924898 -0.953679
      ESP Fit Center  210 is at  -4.875290 -1.020622  1.584891
      ESP Fit Center  211 is at  -3.771254 -1.379345  1.584891
      ESP Fit Center  212 is at  -5.577819 -0.986667  0.744891
      ESP Fit Center  213 is at  -5.577819  0.106275 -0.293406
      ESP Fit Center  214 is at  -5.577819 -0.986667 -0.293406
      ESP Fit Center  215 is at  -4.875290 -1.020622 -1.133406
      ESP Fit Center  216 is at  -4.076402 -0.440196 -1.454258
      ESP Fit Center  217 is at  -3.451927 -1.711973  1.589147
      ESP Fit Center  218 is at  -4.250815 -2.292399  1.268295
      ESP Fit Center  219 is at  -4.953344 -2.258444  0.428295
      ESP Fit Center  220 is at  -4.250815 -3.095687  0.428295
      ESP Fit Center  221 is at  -4.953344 -2.258444 -0.610002
      ESP Fit Center  222 is at  -4.250815 -3.095687 -0.610002
      ESP Fit Center  223 is at  -4.250815 -1.131547 -1.450002
      ESP Fit Center  224 is at  -4.250815 -2.292399 -1.450002
      ESP Fit Center  225 is at   2.352058  3.643016 -0.439188
      ESP Fit Center  226 is at   3.298574  3.096545 -1.477485
      ESP Fit Center  227 is at   2.352058  3.643016 -1.477485
      ESP Fit Center  228 is at   1.275720  3.453228 -1.477485
      ESP Fit Center  229 is at   3.062086  2.069515 -2.317485
      ESP Fit Center  230 is at   2.379755  3.008663 -2.317485
      ESP Fit Center  231 is at   1.275720  2.649940 -2.317485
      ESP Fit Center  232 is at   1.275720  1.489089 -2.317485
      ESP Fit Center  233 is at   2.074607  2.069515 -2.638336
      ESP Fit Center  234 is at  -1.609133  1.547879  2.648940
      ESP Fit Center  235 is at  -1.088473  2.449689  2.411265
      ESP Fit Center  236 is at  -2.129793  2.449689  2.411265
      ESP Fit Center  237 is at  -2.650454  1.547879  2.411265
      ESP Fit Center  238 is at  -1.088473  0.646069  2.411265
      ESP Fit Center  239 is at  -0.829650  3.254708  1.745315
      ESP Fit Center  240 is at  -1.876172  3.405176 -1.247436
      ESP Fit Center  241 is at  -2.837911  2.965964 -1.247436
      ESP Fit Center  242 is at  -3.409521  2.076521 -1.247436
      ESP Fit Center  243 is at  -2.129793  2.449689 -1.913385
      ESP Fit Center  244 is at  -1.609133  1.547879 -2.151060
      ESP Fit Center  245 is at  -0.237043  1.479789  2.457631
      ESP Fit Center  246 is at   0.804278  1.479789  2.219957
      ESP Fit Center  247 is at   0.283617  2.381599  2.219957
      ESP Fit Center  248 is at   0.283617  0.577979  2.219957
      ESP Fit Center  249 is at  -0.504082  3.337086  1.554007
      ESP Fit Center  250 is at  -0.504082  3.337086 -1.438744
      ESP Fit Center  251 is at   0.283617  2.381599 -2.104694
      ESP Fit Center  252 is at  -0.757704  2.381599 -2.104694
      ESP Fit Center  253 is at  -0.237043  1.479789 -2.342369
      ESP Fit Center  254 is at  -0.390885 -0.865966  2.063850
      ESP Fit Center  255 is at   0.129776 -1.767777  1.826176
      ESP Fit Center  256 is at  -0.657924 -2.723263  1.160226
      ESP Fit Center  257 is at  -0.911545  0.035844 -2.498475
      ESP Fit Center  258 is at  -0.911545 -1.767777 -2.498475
      ESP Fit Center  259 is at   0.129776 -1.767777 -2.498475
      ESP Fit Center  260 is at  -0.390885 -0.865966 -2.736150
      ESP Fit Center  261 is at   0.709322 -1.286679  2.054230
      ESP Fit Center  262 is at  -2.367040  0.401934  2.548274
      ESP Fit Center  263 is at  -2.887700  1.303745  2.310599
      ESP Fit Center  264 is at  -2.887700 -0.499876  2.310599
      ESP Fit Center  265 is at  -1.846379 -0.499876  2.310599
      ESP Fit Center  266 is at  -2.887700  1.303745 -2.014051
      ESP Fit Center  267 is at  -3.408361  0.401934 -2.014051
      ESP Fit Center  268 is at  -2.367040  0.401934 -2.251726
      ESP Fit Center  269 is at  -1.758385 -0.813046  2.249700
      ESP Fit Center  270 is at  -2.279045 -1.714857  2.012026
      ESP Fit Center  271 is at  -1.237724 -1.714857  2.012026
      ESP Fit Center  272 is at  -0.978902 -2.519876  1.346076
      ESP Fit Center  273 is at  -2.279045  0.088764 -2.312625
      ESP Fit Center  274 is at  -2.799706 -0.813046 -2.312625
      ESP Fit Center  275 is at  -1.758385 -0.813046 -2.550300
      ESP Fit Center  276 is at   0.377768  0.277977  2.166106
      ESP Fit Center  277 is at  -0.142893  1.179788 -2.396219
      ESP Fit Center  278 is at   0.377768  0.277977 -2.633894
      ESP Fit Center  279 is at   4.464545 -0.010802  2.484714
      ESP Fit Center  280 is at   6.283712 -0.912612  0.856439
      ESP Fit Center  281 is at   6.283712 -0.912612 -0.211661
      ESP Fit Center  282 is at   3.423224 -3.193775 -0.211661
      ESP Fit Center  283 is at   4.464545 -3.193775 -0.211661
      ESP Fit Center  284 is at   5.402743 -2.741962 -0.211661
      ESP Fit Center  285 is at   6.051996 -1.927825 -0.211661
      ESP Fit Center  286 is at   5.522409  0.101844 -1.173987
      ESP Fit Center  287 is at  -3.712205  0.441677  2.572002
      ESP Fit Center  288 is at  -3.226255  1.283366  2.350172
      ESP Fit Center  289 is at  -4.198155  1.283366  2.350172
      ESP Fit Center  290 is at  -4.684104  0.441677  2.350172
      ESP Fit Center  291 is at  -4.198155 -0.400013  2.350172
      ESP Fit Center  292 is at  -3.226255 -0.400013  2.350172
      ESP Fit Center  293 is at  -4.253387  2.107264  1.728619
      ESP Fit Center  294 is at  -5.129038  1.471066  1.728619
      ESP Fit Center  295 is at  -5.463507  0.441677  1.728619
      ESP Fit Center  296 is at  -4.486605  2.483601  0.830449
      ESP Fit Center  297 is at  -5.346831  1.889829  0.830449
      ESP Fit Center  298 is at  -5.832585  0.964303  0.830449
      ESP Fit Center  299 is at  -4.486605  2.483601 -0.166445
      ESP Fit Center  300 is at  -5.346831  1.889829 -0.166445
      ESP Fit Center  301 is at  -5.832585  0.964303 -0.166445
      ESP Fit Center  302 is at  -4.253387  2.107264 -1.064615
      ESP Fit Center  303 is at  -5.129038  1.471066 -1.064615
      ESP Fit Center  304 is at  -5.463507  0.441677 -1.064615
      ESP Fit Center  305 is at  -4.198155  1.283366 -1.686168
      ESP Fit Center  306 is at  -4.684104  0.441677 -1.686168
      ESP Fit Center  307 is at  -3.712205  0.441677 -1.907998
      ESP Fit Center  308 is at  -2.532997 -1.939771  1.990271
      ESP Fit Center  309 is at  -3.018947 -2.781461  1.768442
      ESP Fit Center  310 is at  -2.047047 -2.781461  1.768442
      ESP Fit Center  311 is at  -3.074179 -3.605359  1.146889
      ESP Fit Center  312 is at  -1.991815 -3.605359  1.146889
      ESP Fit Center  313 is at  -1.116163 -2.969161  1.146889
      ESP Fit Center  314 is at  -3.307397 -3.981696  0.248718
      ESP Fit Center  315 is at  -2.269764 -4.107687  0.248718
      ESP Fit Center  316 is at  -1.292435 -3.737035  0.248718
      ESP Fit Center  317 is at  -4.167623 -3.387924 -0.748175
      ESP Fit Center  318 is at  -3.307397 -3.981696 -0.748175
      ESP Fit Center  319 is at  -2.269764 -4.107687 -0.748175
      ESP Fit Center  320 is at  -1.292435 -3.737035 -0.748175
      ESP Fit Center  321 is at  -3.949830 -2.969161 -1.646346
      ESP Fit Center  322 is at  -3.074179 -3.605359 -1.646346
      ESP Fit Center  323 is at  -1.991815 -3.605359 -1.646346
      ESP Fit Center  324 is at  -1.116163 -2.969161 -1.646346
      ESP Fit Center  325 is at  -1.561097 -1.939771 -2.267899
      ESP Fit Center  326 is at  -3.018947 -1.098081 -2.267899
      ESP Fit Center  327 is at  -3.504896 -1.939771 -2.267899
      ESP Fit Center  328 is at  -3.018947 -2.781461 -2.267899
      ESP Fit Center  329 is at  -2.047047 -2.781461 -2.267899
      ESP Fit Center  330 is at  -2.532997 -1.939771 -2.489729
      ESP Fit Center  331 is at   3.443645  1.466135  1.692235
      ESP Fit Center  332 is at   2.957695  2.307825  1.692235
      ESP Fit Center  333 is at   1.985796  2.307825  1.692235
      ESP Fit Center  334 is at   3.888579  2.495525  1.070682
      ESP Fit Center  335 is at   3.012928  3.131723  1.070682
      ESP Fit Center  336 is at   1.930563  3.131723  1.070682
      ESP Fit Center  337 is at   4.405439  2.481015  0.172511
      ESP Fit Center  338 is at   3.712307  3.263399  0.172511
      ESP Fit Center  339 is at   2.734978  3.634051  0.172511
      ESP Fit Center  340 is at   4.655584  1.466135 -0.824382
      ESP Fit Center  341 is at   4.405439  2.481015 -0.824382
      ESP Fit Center  342 is at   3.712307  3.263399 -0.824382
      ESP Fit Center  343 is at   4.223048  1.466135 -1.722553
      ESP Fit Center  344 is at   3.888579  2.495525 -1.722553
      ESP Fit Center  345 is at   3.443645  1.466135 -2.344106
      ESP Fit Center  346 is at  -1.596472  3.326253  2.137941
      ESP Fit Center  347 is at  -2.556472  3.326253  2.137941
      ESP Fit Center  348 is at  -3.036472  2.494868  2.137941
      ESP Fit Center  349 is at  -0.731263  3.472219  1.435172
      ESP Fit Center  350 is at  -1.562648  4.076255  1.435172
      ESP Fit Center  351 is at  -2.590295  4.076255  1.435172
      ESP Fit Center  352 is at  -3.421680  3.472219  1.435172
      ESP Fit Center  353 is at  -3.739240  2.494868  1.435172
      ESP Fit Center  354 is at  -1.116472  4.157637  0.475172
      ESP Fit Center  355 is at  -2.076472  4.414868  0.475172
      ESP Fit Center  356 is at  -3.036472  4.157637  0.475172
      ESP Fit Center  357 is at  -3.739240  3.454868  0.475172
      ESP Fit Center  358 is at  -1.562648  4.076255 -0.484828
      ESP Fit Center  359 is at  -2.590295  4.076255 -0.484828
      ESP Fit Center  360 is at  -3.421680  3.472219 -0.484828
      ESP Fit Center  361 is at  -2.556472  3.326253 -1.187597
      ESP Fit Center  362 is at   1.324100  2.373596  1.798835
      ESP Fit Center  363 is at   0.844100  3.204981  1.798835
      ESP Fit Center  364 is at  -0.115900  3.204981  1.798835
      ESP Fit Center  365 is at   1.709308  3.350947  1.096066
      ESP Fit Center  366 is at   0.877924  3.954983  1.096066
      ESP Fit Center  367 is at  -0.149724  3.954983  1.096066
      ESP Fit Center  368 is at   1.324100  4.036365  0.136066
      ESP Fit Center  369 is at   0.364100  4.293596  0.136066
      ESP Fit Center  370 is at  -0.595900  4.036365  0.136066
      ESP Fit Center  371 is at   0.877924  3.954983 -0.823934
      ESP Fit Center  372 is at  -0.149724  3.954983 -0.823934
      ESP Fit Center  373 is at  -0.426685 -3.388667  0.396325
      ESP Fit Center  374 is at   0.600962 -3.388667  0.396325
      ESP Fit Center  375 is at  -0.872862 -3.470049 -0.563675
      ESP Fit Center  376 is at   0.087138 -3.727280 -0.563675
      ESP Fit Center  377 is at   1.047138 -3.470049 -0.563675
      ESP Fit Center  378 is at  -0.426685 -3.388667 -1.523675
      ESP Fit Center  379 is at   0.600962 -3.388667 -1.523675
      ESP Fit Center  380 is at   1.432347 -2.784631 -1.523675
      ESP Fit Center  381 is at   1.047138 -1.807280 -2.226444
      ESP Fit Center  382 is at  -0.392862 -2.638664 -2.226444
      ESP Fit Center  383 is at   0.567138 -2.638664 -2.226444
      ESP Fit Center  384 is at   1.544022 -2.562878  2.153055
[...]
  364 Fit       0.103871
  365 Fit       0.122089
  366 Fit       0.110645
  367 Fit       0.103334
  368 Fit       0.112685
  369 Fit       0.105302
  370 Fit       0.099310
  371 Fit       0.110320
  372 Fit       0.127757
  373 Fit       0.129399
  374 Fit       0.129196
  375 Fit       0.146008
  376 Fit       0.128134
  377 Fit       0.133038
  378 Fit       0.128713
  379 Fit       0.126724
  380 Fit       0.139716
  381 Fit       0.132544
  382 Fit       0.119680
  383 Fit       0.123287
  384 Fit       0.144354
  385 Fit       0.165970
  386 Fit       0.143384
  387 Fit       0.134605
  388 Fit       0.138550
  389 Fit       0.150402
  390 Fit       0.129832
  391 Fit       0.134885
  392 Fit       0.142466
  393 Fit       0.154742
  394 Fit       0.177695
  395 Fit       0.138501
  396 Fit       0.147682
  397 Fit       0.157075
  398 Fit       0.178498
  399 Fit       0.167148
  400 Fit       0.187691
  401 Fit       0.145769
  402 Fit       0.170700
  403 Fit       0.147477
  404 Fit       0.134079
  405 Fit       0.133836
  406 Fit       0.171883
  407 Fit       0.144941
  408 Fit       0.132940
  409 Fit       0.125046
  410 Fit       0.124457
  411 Fit       0.156237
  412 Fit       0.140416
  413 Fit       0.147129
  414 Fit       0.155407
  415 Fit       0.168229
  416 Fit       0.146067
  417 Fit       0.159697
  418 Fit       0.161264
  419 Fit       0.136310
  420 Fit       0.140309
  421 Fit       0.153299
  422 Fit       0.138860
  423 Fit       0.134227
  424 Fit       0.131550
  425 Fit       0.135085
  426 Fit       0.137871
  427 Fit       0.172085
  428 Fit       0.168015
  429 Fit       0.168744
  430 Fit       0.175685
  431 Fit       0.182899
  432 Fit       0.181276
  433 Fit       0.173212
  434 Fit       0.168401
  435 Fit       0.167658
  436 Fit       0.171187
  437 Fit       0.180826
  438 Fit       0.184099
  439 Fit       0.173810
  440 Fit       0.173885
  441 Fit       0.172716
  442 Fit       0.176237
  443 Fit       0.181654
  444 Fit       0.184848
  445 Fit       0.177600
  446 Fit       0.180308
  447 Fit       0.182729
  448 Fit       0.184720
  449 Fit       0.174697
  450 Fit       0.171119
  451 Fit       0.173086
  452 Fit       0.177155
  453 Fit       0.177616
  454 Fit       0.170555
  455 Fit       0.170009
  456 Fit       0.175801
  457 Fit       0.177292
  458 Fit       0.171393
  459 Fit       0.174756
  460 Fit       0.169867
  461 Fit       0.162622
  462 Fit       0.155923
  463 Fit       0.167039
  464 Fit       0.157303
  465 Fit       0.147398
  466 Fit       0.155859
  467 Fit       0.142285
  468 Fit       0.165143
  469 Fit       0.073428
  470 Fit       0.080420
  471 Fit       0.080522
  472 Fit       0.078014
  473 Fit       0.084340
  474 Fit       0.080080
  475 Fit       0.085771
  476 Fit       0.080313
  477 Fit       0.079541
  478 Fit       0.084529
  479 Fit       0.077526
  480 Fit       0.080414
  481 Fit       0.108279
  482 Fit       0.105298
  483 Fit       0.118765
  484 Fit       0.131587
  485 Fit       0.090838
  486 Fit       0.104982
  487 Fit       0.117121
  488 Fit       0.129657
  489 Fit       0.097141
  490 Fit       0.111267
  491 Fit       0.123957
  492 Fit       0.137804
  493 Fit       0.122882
  494 Fit       0.106746
  495 Fit       0.120003
  496 Fit       0.105724
  497 Fit       0.116296
  498 Fit       0.119206
  499 Fit       0.118867
  500 Fit       0.119416
  501 Fit       0.121190
  502 Fit       0.121823
  503 Fit       0.123625
  504 Fit       0.131520
  505 Fit       0.139103
  506 Fit       0.134929
  507 Fit       0.123956
  508 Fit       0.123074
  509 Fit       0.124479
  510 Fit       0.127234
  511 Fit       0.130812
  512 Fit       0.128434
  513 Fit       0.126623
  514 Fit       0.078072
  515 Fit       0.090358
  516 Fit       0.083203
  517 Fit       0.074026
  518 Fit       0.068837
  519 Fit       0.086469
  520 Fit       0.089232
  521 Fit       0.087184
  522 Fit       0.077399
  523 Fit       0.069232
  524 Fit       0.083100
  525 Fit       0.073449
  526 Fit       0.079637
  527 Fit       0.096812
  528 Fit       0.103669
  529 Fit       0.092160
  530 Fit       0.115804
  531 Fit       0.089384
  532 Fit       0.109725
  533 Fit       0.088190
  534 Fit       0.084069
  535 Fit       0.105625
  536 Fit       0.098960
  537 Fit       0.096883
  538 Fit       0.112641
  539 Fit       0.110462
  540 Fit       0.122553
  541 Fit       0.120218
  542 Fit       0.089864
  543 Fit       0.090369
  544 Fit       0.101173
  545 Fit       0.110483
  546 Fit       0.099287
  547 Fit       0.144067
  548 Fit       0.165844
  549 Fit       0.122014
  550 Fit       0.073675
  551 Fit       0.075576
  552 Fit       0.082549
  553 Fit       0.069693
  554 Fit       0.072132
  555 Fit       0.077671
  556 Fit       0.083210
  557 Fit       0.093527
  558 Fit       0.080534
  559 Fit       0.091306
  560 Fit       0.085935
  561 Fit       0.079355
  562 Fit       0.080083
  563 Fit       0.091250
  564 Fit       0.086439
  565 Fit       0.115902
  566 Fit       0.105354
  567 Fit       0.131436
  568 Fit       0.170051
  569 Fit       0.164252
  570 Fit       0.162663
  571 Fit       0.162895
  572 Fit       0.163323
  573 Fit       0.157766
  574 Fit       0.165625
  575 Fit       0.160562
  576 Fit       0.161052
  577 Fit       0.160576
  578 Fit       0.060021
  579 Fit       0.060543
  580 Fit       0.050656
  581 Fit       0.056329
  582 Fit       0.067540
  583 Fit       0.051228
  584 Fit       0.045237
  585 Fit       0.052362
  586 Fit       0.049908
  587 Fit       0.043300
  588 Fit       0.049092
  589 Fit       0.064476
  590 Fit       0.050645
  591 Fit       0.044030
  592 Fit       0.049964
  593 Fit       0.053887
  594 Fit       0.047883
  595 Fit       0.055602
  596 Fit       0.056022
  597 Fit       0.062606
  598 Fit       0.074883
  599 Fit       0.075814
  600 Fit       0.070249
  601 Fit       0.072847
  602 Fit       0.085315
  603 Fit       0.068426
  604 Fit       0.072819
  605 Fit       0.088290
  606 Fit       0.069420
  607 Fit       0.080075
  608 Fit       0.073993
  609 Fit       0.071313
  610 Fit       0.073144
  611 Fit       0.071209
  612 Fit       0.085452
  613 Fit       0.076875
  614 Fit       0.074095
  615 Fit       0.088531
  616 Fit       0.085619
  617 Fit       0.146892
  618 Fit       0.130943
  619 Fit       0.113791
  620 Fit       0.130519
  621 Fit       0.112440
  622 Fit       0.106189
  623 Fit       0.109909
  624 Fit       0.118963
  625 Fit       0.111818
  626 Fit       0.110232
  627 Fit       0.129569
  628 Fit       0.125065
  629 Fit       0.116469
  630 Fit       0.083013
  631 Fit       0.073953
  632 Fit       0.086111
  633 Fit       0.077498
  634 Fit       0.069826
  635 Fit       0.092006
  636 Fit       0.081672
  637 Fit       0.074335
  638 Fit       0.066669
  639 Fit       0.086252
  640 Fit       0.077211
  641 Fit       0.069789
  642 Fit       0.073627
  643 Fit       0.112656
  644 Fit       0.125701
  645 Fit       0.107520
  646 Fit       0.099567
  647 Fit       0.120440
  648 Fit       0.107556
  649 Fit       0.099355
  650 Fit       0.097303
  651 Fit       0.109915
  652 Fit       0.102258
  653 Fit       0.095822
  654 Fit       0.107557
  655 Fit       0.124769
  656 Fit       0.121466
  657 Fit       0.126379
  658 Fit       0.146715
  659 Fit       0.129398
  660 Fit       0.121734
  661 Fit       0.130095
  662 Fit       0.120020
  663 Fit       0.122377
  664 Fit       0.114219
  665 Fit       0.118344
  666 Fit       0.135950
  667 Fit       0.157580
  668 Fit       0.126280
  669 Fit       0.129925
  670 Fit       0.141619
  671 Fit       0.122137
  672 Fit       0.123182
  673 Fit       0.129203
  674 Fit       0.136406
  675 Fit       0.149081
  676 Fit       0.142178
  677 Fit       0.152074
  678 Fit       0.175071
  679 Fit       0.137743
  680 Fit       0.138941
  681 Fit       0.125789
  682 Fit       0.125924
  683 Fit       0.166951
  684 Fit       0.139611
  685 Fit       0.127024
  686 Fit       0.119735
  687 Fit       0.151898
  688 Fit       0.134405
  689 Fit       0.149973
  690 Fit       0.167535
  691 Fit       0.140874
  692 Fit       0.157141
  693 Fit       0.129752
  694 Fit       0.135308
  695 Fit       0.148688
  696 Fit       0.125084
  697 Fit       0.128629
  698 Fit       0.131931
  699 Fit       0.158254
  700 Fit       0.154036
  701 Fit       0.154798
  702 Fit       0.161953
  703 Fit       0.167795
  704 Fit       0.159411
  705 Fit       0.154462
  706 Fit       0.153603
  707 Fit       0.156315
  708 Fit       0.163632
  709 Fit       0.168117
  710 Fit       0.159218
  711 Fit       0.160064
  712 Fit       0.158766
  713 Fit       0.161463
  714 Fit       0.166792
  715 Fit       0.168331
  716 Fit       0.163571
  717 Fit       0.167153
  718 Fit       0.167654
  719 Fit       0.159704
  720 Fit       0.157230
  721 Fit       0.159705
  722 Fit       0.163403
  723 Fit       0.161648
  724 Fit       0.156311
  725 Fit       0.156577
  726 Fit       0.162065
  727 Fit       0.164584
  728 Fit       0.157969
  729 Fit       0.157372
  730 Fit       0.150864
  731 Fit       0.145892
  732 Fit       0.154246
  733 Fit       0.145600
  734 Fit       0.138152
  735 Fit       0.144437
  736 Fit       0.154200
  737 Fit       0.068708
  738 Fit       0.075191
  739 Fit       0.066479
  740 Fit       0.075271
  741 Fit       0.077486
  742 Fit       0.068705
  743 Fit       0.076444
  744 Fit       0.078625
  745 Fit       0.068275
  746 Fit       0.076402
  747 Fit       0.077111
  748 Fit       0.072476
  749 Fit       0.102660
  750 Fit       0.088952
  751 Fit       0.101152
  752 Fit       0.113224
  753 Fit       0.089430
  754 Fit       0.100110
  755 Fit       0.110731
  756 Fit       0.123277
  757 Fit       0.094635
  758 Fit       0.105669
  759 Fit       0.117257
  760 Fit       0.098968
  761 Fit       0.111735
  762 Fit       0.099367
  763 Fit       0.112478
  764 Fit       0.111660
  765 Fit       0.112007
  766 Fit       0.112256
  767 Fit       0.112340
  768 Fit       0.116692
  769 Fit       0.126214
  770 Fit       0.131937
  771 Fit       0.116130
  772 Fit       0.114041
  773 Fit       0.114475
  774 Fit       0.117038
  775 Fit       0.121360
  776 Fit       0.120371
  777 Fit       0.116964
  778 Fit       0.077713
  779 Fit       0.089856
  780 Fit       0.081719
  781 Fit       0.072601
  782 Fit       0.068709
  783 Fit       0.086360
  784 Fit       0.085547
  785 Fit       0.086032
  786 Fit       0.060586
  787 Fit       0.074789
  788 Fit       0.067657
  789 Fit       0.073100
  790 Fit       0.080064
  791 Fit       0.096070
  792 Fit       0.101172
  793 Fit       0.102599
  794 Fit       0.087889
  795 Fit       0.100844
  796 Fit       0.087015
  797 Fit       0.088009
  798 Fit       0.084839
  799 Fit       0.098210
  800 Fit       0.109958
  801 Fit       0.104478
  802 Fit       0.117859
  803 Fit       0.115729
  804 Fit       0.089718
  805 Fit       0.088696
  806 Fit       0.097227
  807 Fit       0.106172
  808 Fit       0.097548
  809 Fit       0.134189
  810 Fit       0.150722
  811 Fit       0.140521
  812 Fit       0.124504
  813 Fit       0.115884
  814 Fit       0.072899
  815 Fit       0.064855
  816 Fit       0.073603
  817 Fit       0.081182
  818 Fit       0.069526
  819 Fit       0.070921
  820 Fit       0.076862
  821 Fit       0.081832
  822 Fit       0.092887
  823 Fit       0.079536
  824 Fit       0.089511
  825 Fit       0.078149
  826 Fit       0.078472
  827 Fit       0.087725
  828 Fit       0.085018
  829 Fit       0.104398
  830 Fit       0.124173
  831 Fit       0.155420
  832 Fit       0.159141
  833 Fit       0.156544
  834 Fit       0.155046
  835 Fit       0.150485
  836 Fit       0.149981
  837 Fit       0.148437
  838 Fit       0.146937
  839 Fit       0.151633
  840 Fit       0.147232
  841 Fit       0.147131
  842 Fit       0.150185
  843 Fit       0.146701
  844 Fit       0.150381
  845 Fit       0.146443
  846 Fit       0.146103
  847 Fit       0.061142
  848 Fit       0.061660
  849 Fit       0.053504
  850 Fit       0.056844
  851 Fit       0.065442
  852 Fit       0.056264
  853 Fit       0.048813
  854 Fit       0.049717
  855 Fit       0.057352
  856 Fit       0.055493
  857 Fit       0.046628
  858 Fit       0.046959
  859 Fit       0.054438
  860 Fit       0.050947
  861 Fit       0.045498
  862 Fit       0.047805
  863 Fit       0.056256
  864 Fit       0.056570
  865 Fit       0.047854
  866 Fit       0.048294
  867 Fit       0.056158
  868 Fit       0.058877
  869 Fit       0.051646
  870 Fit       0.052820
  871 Fit       0.061230
  872 Fit       0.058349
  873 Fit       0.062406
  874 Fit       0.071866
  875 Fit       0.075547
  876 Fit       0.069981
  877 Fit       0.072683
  878 Fit       0.082972
  879 Fit       0.070985
  880 Fit       0.067766
  881 Fit       0.074194
  882 Fit       0.085633
  883 Fit       0.096720
  884 Fit       0.069177
  885 Fit       0.069400
  886 Fit       0.079272
  887 Fit       0.069596
  888 Fit       0.070209
  889 Fit       0.080168
  890 Fit       0.068844
  891 Fit       0.073776
  892 Fit       0.072283
  893 Fit       0.069540
  894 Fit       0.073900
  895 Fit       0.075763
  896 Fit       0.073931
  897 Fit       0.084543
  898 Fit       0.083450
  899 Fit       0.121157
  900 Fit       0.124795
  901 Fit       0.109912
  902 Fit       0.105259
  903 Fit       0.118671
  904 Fit       0.107767
  905 Fit       0.103203
  906 Fit       0.105015
  907 Fit       0.142129
  908 Fit       0.139550
  909 Fit       0.112773
  910 Fit       0.107860
  911 Fit       0.106233
  912 Fit       0.124819
  913 Fit       0.121163
  914 Fit       0.117519
  915 Fit       0.080067
  916 Fit       0.071552
  917 Fit       0.082354
  918 Fit       0.074023
  919 Fit       0.067009
  920 Fit       0.090494
  921 Fit       0.079907
  922 Fit       0.072626
  923 Fit       0.066191
  924 Fit       0.057399
  925 Fit       0.090985
  926 Fit       0.079937
  927 Fit       0.072583
  928 Fit       0.066250
  929 Fit       0.057847
  930 Fit       0.082667
  931 Fit       0.073966
  932 Fit       0.067256
  933 Fit       0.109740
  934 Fit       0.123901
  935 Fit       0.104684
  936 Fit       0.096123
  937 Fit       0.125290
  938 Fit       0.107428
  939 Fit       0.097447
  940 Fit       0.093576
  941 Fit       0.103522
  942 Fit       0.095555
  943 Fit       0.091680
  944 Fit       0.098906
  945 Fit       0.092185
  946 Fit       0.106456
  947 Fit       0.115173
  948 Fit       0.122050
  949 Fit       0.118502
  950 Fit       0.117751
  951 Fit       0.129453
  952 Fit       0.117762
  953 Fit       0.116220
  954 Fit       0.126189
  955 Fit       0.112936
  956 Fit       0.116190
  957 Fit       0.108254
  958 Fit       0.113055
  959 Fit       0.128557
  960 Fit       0.145523
  961 Fit       0.120082
  962 Fit       0.122912
  963 Fit       0.132851
  964 Fit       0.116504
  965 Fit       0.116709
  966 Fit       0.121200
  967 Fit       0.127430
  968 Fit       0.138113
  969 Fit       0.156013
  970 Fit       0.126976
  971 Fit       0.132258
  972 Fit       0.141806
  973 Fit       0.143608
  974 Fit       0.155137
  975 Fit       0.130546
  976 Fit       0.131027
  977 Fit       0.119821
  978 Fit       0.120372
  979 Fit       0.153375
  980 Fit       0.131055
  981 Fit       0.119793
  982 Fit       0.113608
  983 Fit       0.145003
  984 Fit       0.127944
  985 Fit       0.120602
  986 Fit       0.130927
  987 Fit       0.148136
  988 Fit       0.142591
  989 Fit       0.128720
  990 Fit       0.131563
  991 Fit       0.144898
  992 Fit       0.121992
  993 Fit       0.126407
  994 Fit       0.136090
  995 Fit       0.119486
  996 Fit       0.122427
  997 Fit       0.146741
  998 Fit       0.142791
  999 Fit       0.143486
 1000 Fit       0.149536
 1001 Fit       0.154426
 1002 Fit       0.147434
 1003 Fit       0.142337
 1004 Fit       0.141615
 1005 Fit       0.144008
 1006 Fit       0.150229
 1007 Fit       0.153300
 1008 Fit       0.146247
 1009 Fit       0.145302
 1010 Fit       0.144081
 1011 Fit       0.145645
 1012 Fit       0.150020
 1013 Fit       0.149906
 1014 Fit       0.159423
 1015 Fit       0.154957
 1016 Fit       0.155054
 1017 Fit       0.149024
 1018 Fit       0.147804
 1019 Fit       0.151312
 1020 Fit       0.152708
 1021 Fit       0.146514
 1022 Fit       0.144687
 1023 Fit       0.146812
 1024 Fit       0.150510
 1025 Fit       0.145314
 1026 Fit       0.145366
 1027 Fit       0.147376
 1028 Fit       0.147212
 1029 Fit       0.143736
 1030 Fit       0.141709
 1031 Fit       0.136284
 1032 Fit       0.131698
 1033 Fit       0.140977
 1034 Fit       0.133497
 1035 Fit       0.127121
 1036 Fit       0.133877
 1037 Fit       0.071030
 1038 Fit       0.069543
 1039 Fit       0.072494
 1040 Fit       0.067724
 1041 Fit       0.072326
 1042 Fit       0.073186
 1043 Fit       0.068299
 1044 Fit       0.072724
 1045 Fit       0.064639
 1046 Fit       0.071133
 1047 Fit       0.068969
 1048 Fit       0.093628
 1049 Fit       0.104773
 1050 Fit       0.086135
 1051 Fit       0.095096
 1052 Fit       0.104948
 1053 Fit       0.117322
 1054 Fit       0.088008
 1055 Fit       0.096647
 1056 Fit       0.106273
 1057 Fit       0.118661
 1058 Fit       0.088925
 1059 Fit       0.098351
 1060 Fit       0.108833
 1061 Fit       0.092994
 1062 Fit       0.103855
 1063 Fit       0.094340
 1064 Fit       0.105453
 1065 Fit       0.108056
 1066 Fit       0.105747
 1067 Fit       0.105199
 1068 Fit       0.105216
 1069 Fit       0.105951
 1070 Fit       0.109987
 1071 Fit       0.117142
 1072 Fit       0.121688
 1073 Fit       0.109578
 1074 Fit       0.107036
 1075 Fit       0.106819
 1076 Fit       0.109035
 1077 Fit       0.112922
 1078 Fit       0.112926
 1079 Fit       0.109211
 -----------------------------------------------------------------
 Leave Link  602 at Tue Jun 13 11:12:09 2023, MaxMem=  2147483648 cpu:               1.3 elap:               0.1

 Test job not archived.
 1\1\GINC-LOCALHOST\FOpt\RHF\6-31G(d)\C8H12N1O3(1+)\USER\13-Jun-2023\0\
 \# opt HF/6-31g* Pop=MK iop(6/33=2)\\title\\1,1\C,103.203746853,121.41
 47772216,119.5182344476\C,104.1116365857,120.3739462617,119.6372814684
 \C,105.7388415699,121.898686113,120.5226451614\C,106.9397057578,119.10
 37107147,118.8776707819\C,103.5584111105,122.6950731504,119.8931603665
 \C,104.8389414646,122.9328060714,120.4010423276\C,105.3821228736,120.6
 057790242,120.137571343\C,106.3843959849,119.4812365634,120.2494374853
 \N,107.7392291291,117.8283301878,119.0202113028\O,102.6720509916,123.6
 86465458,119.771798459\O,105.0915441697,124.2169251255,120.744390102\O
 ,105.846021654,118.2742254647,120.7298842965\H,102.2131965884,121.2477
 758114,119.1395907554\H,103.8111106302,119.381932802,119.351319617\H,1
 06.7175591587,122.0987738337,120.9269280945\H,107.586148441,119.862605
 5219,118.4647290818\H,106.1402476349,118.8838837419,118.1875656059\H,1
 07.2071997074,119.7943189817,120.8885391675\H,107.9966782244,117.43233
 96058,118.127450898\H,108.5879960864,117.9694673676,119.5496457124\H,1
 07.1746116175,117.1569447639,119.5288140632\H,103.0395986877,124.50654
 31304,120.0810799806\H,105.9291817558,124.3217076201,121.1746199453\H,
 105.3100233232,118.4245454631,121.5000895363\\Version=ES64L-G16RevC.01
 \State=1-A\HF=-588.7365645\RMSD=6.974e-09\RMSF=9.411e-06\Dipole=4.3568
 047,-3.8357031,-0.7225398\Quadrupole=1.4063834,12.6751403,-14.0815237,
 -18.1893968,-5.7664018,11.8119565\PG=C01 [X(C8H12N1O3)]\\@


 There was a great rattling of the words for the fewness of ideas.
                   -- Charles Baxter in Gryphon
 Job cpu time:       0 days  1 hours  7 minutes 58.1 seconds.
 Elapsed time:       0 days  0 hours  4 minutes 21.5 seconds.
 File lengths (MBytes):  RWF=     32 Int=      0 D2E=      0 Chk=      5 Scr=      1
 Normal termination of Gaussian 16 at Tue Jun 13 11:12:09 2023.
